<?xml version="1.0" encoding="UTF-8"?>

<!-- generated on 2025-03-17 17:52:40 by Eclipse SUMO GUI Version 1.22.0
<sumoConfiguration xmlns:xsi="http://www.w3.org/2001/XMLSchema-instance" xsi:noNamespaceSchemaLocation="http://sumo.dlr.de/xsd/sumoConfiguration.xsd">

    <input>
        <net-file value="C:\Users\chris\PycharmProjects\UW_CET593_project2\environment/network_model/UW_intersection_pedestrian_X.net.xml"/>
        <route-files value="C:\Users\chris\PycharmProjects\UW_CET593_project2\environment/network_model/UW_IntersectionDecreaseDemand.rou.xml"/>
        <additional-files value="C:\Users\chris\PycharmProjects\UW_CET593_project2\environment/network_model/UW_intersection_Concurrent.add.xml"/>
    </input>

    <output>
        <queue-output value="C:\Users\chris\PycharmProjects\UW_CET593_project2\environment/simulation_data/UW_intersection/queues_multi_scale_symmetric_pene_100.xml"/>
        <tripinfo-output value="C:\Users\chris\PycharmProjects\UW_CET593_project2\environment/simulation_data/UW_intersection/tripinfo_multi_scale_symmetric_pene_100.xml"/>
    </output>

    <time>
        <begin value="0"/>
        <step-length value="0.5"/>
    </time>

    <processing>
        <waiting-time-memory value="1000"/>
    </processing>

    <report>
        <verbose value="true"/>
        <no-step-log value="true"/>
    </report>

    <traci_server>
        <remote-port value="51230"/>
    </traci_server>

    <gui_only>
        <start value="true"/>
    </gui_only>

</sumoConfiguration>
-->

<tripinfos xmlns:xsi="http://www.w3.org/2001/XMLSchema-instance" xsi:noNamespaceSchemaLocation="http://sumo.dlr.de/xsd/tripinfo_file.xsd">
    <tripinfo id="NS.0" depart="0.00" departLane="5_1_1" departPos="5.10" departSpeed="0.00" departDelay="0.00" arrival="37.00" arrivalLane="1_3_1" arrivalPos="189.60" arrivalSpeed="12.43" duration="37.00" routeLength="395.22" waitingTime="0.00" waitingCount="0" stopTime="0.00" timeLoss="4.93" rerouteNo="0" devices="tripinfo_NS.0 routing_NS.0" vType="DEFAULT_VEHTYPE" speedFactor="1.11" vaporized=""/>
    <tripinfo id="NE.0" depart="0.00" departLane="5_1_3" departPos="5.10" departSpeed="0.00" departDelay="0.00" arrival="37.50" arrivalLane="1_4_2" arrivalPos="186.40" arrivalSpeed="13.00" duration="37.50" routeLength="392.89" waitingTime="0.00" waitingCount="0" stopTime="0.00" timeLoss="8.64" rerouteNo="0" devices="tripinfo_NE.0 routing_NE.0" vType="DEFAULT_VEHTYPE" speedFactor="1.24" vaporized=""/>
    <tripinfo id="NW.0" depart="2.50" departLane="5_1_1" departPos="5.10" departSpeed="0.00" departDelay="2.50" arrival="40.50" arrivalLane="1_2_1" arrivalPos="186.40" arrivalSpeed="12.23" duration="38.00" routeLength="382.62" waitingTime="0.00" waitingCount="0" stopTime="0.00" timeLoss="6.19" rerouteNo="0" devices="tripinfo_NW.0 routing_NW.0" vType="DEFAULT_VEHTYPE" speedFactor="1.09" vaporized=""/>
    <tripinfo id="EN.0" depart="0.00" departLane="4_1_1" departPos="5.10" departSpeed="0.00" departDelay="0.00" arrival="41.50" arrivalLane="1_5_1" arrivalPos="189.60" arrivalSpeed="11.92" duration="41.50" routeLength="382.62" waitingTime="0.00" waitingCount="0" stopTime="0.00" timeLoss="8.54" rerouteNo="0" devices="tripinfo_EN.0 routing_EN.0" vType="DEFAULT_VEHTYPE" speedFactor="1.06" vaporized=""/>
    <tripinfo id="WN.0" depart="2.50" departLane="2_1_1" departPos="5.10" departSpeed="0.00" departDelay="2.50" arrival="54.50" arrivalLane="1_5_2" arrivalPos="189.60" arrivalSpeed="12.90" duration="52.00" routeLength="392.90" waitingTime="5.50" waitingCount="3" stopTime="0.00" timeLoss="21.29" rerouteNo="0" devices="tripinfo_WN.0 routing_WN.0" vType="DEFAULT_VEHTYPE" speedFactor="1.15" vaporized=""/>
    <tripinfo id="WE.0" depart="0.00" departLane="2_1_1" departPos="5.10" departSpeed="0.00" departDelay="0.00" arrival="55.50" arrivalLane="1_4_1" arrivalPos="186.40" arrivalSpeed="10.86" duration="55.50" routeLength="395.13" waitingTime="8.00" waitingCount="1" stopTime="0.00" timeLoss="18.75" rerouteNo="0" devices="tripinfo_WE.0 routing_WE.0" vType="DEFAULT_VEHTYPE" speedFactor="0.97" vaporized=""/>
    <tripinfo id="ES.0" depart="0.00" departLane="4_1_2" departPos="5.10" departSpeed="0.00" departDelay="0.00" arrival="58.00" arrivalLane="1_3_2" arrivalPos="189.60" arrivalSpeed="11.37" duration="58.00" routeLength="392.89" waitingTime="11.00" waitingCount="2" stopTime="0.00" timeLoss="22.97" rerouteNo="0" devices="tripinfo_ES.0 routing_ES.0" vType="DEFAULT_VEHTYPE" speedFactor="1.02" vaporized=""/>
    <tripinfo id="WS.0" depart="5.00" departLane="2_1_1" departPos="5.10" departSpeed="0.00" departDelay="5.00" arrival="60.00" arrivalLane="1_3_1" arrivalPos="189.60" arrivalSpeed="10.21" duration="55.00" routeLength="385.10" waitingTime="2.50" waitingCount="2" stopTime="0.00" timeLoss="16.35" rerouteNo="0" devices="tripinfo_WS.0 routing_WS.0" vType="DEFAULT_VEHTYPE" speedFactor="0.91" vaporized=""/>
    <tripinfo id="EW.0" depart="2.50" departLane="4_1_2" departPos="5.10" departSpeed="0.00" departDelay="2.50" arrival="60.50" arrivalLane="1_2_1" arrivalPos="186.40" arrivalSpeed="10.85" duration="58.00" routeLength="394.90" waitingTime="7.00" waitingCount="2" stopTime="0.00" timeLoss="21.52" rerouteNo="0" devices="tripinfo_EW.0 routing_EW.0" vType="DEFAULT_VEHTYPE" speedFactor="0.97" vaporized=""/>
    <tripinfo id="SE.0" depart="0.00" departLane="3_1_1" departPos="5.10" departSpeed="0.00" departDelay="0.00" arrival="70.00" arrivalLane="1_4_1" arrivalPos="186.40" arrivalSpeed="11.14" duration="70.00" routeLength="379.93" waitingTime="30.50" waitingCount="1" stopTime="0.00" timeLoss="35.21" rerouteNo="0" devices="tripinfo_SE.0 routing_SE.0" vType="DEFAULT_VEHTYPE" speedFactor="0.99" vaporized=""/>
    <tripinfo id="SN.0" depart="0.00" departLane="3_1_2" departPos="5.10" departSpeed="0.00" departDelay="0.00" arrival="71.00" arrivalLane="1_5_2" arrivalPos="189.60" arrivalSpeed="11.65" duration="71.00" routeLength="395.22" waitingTime="31.00" waitingCount="1" stopTime="0.00" timeLoss="36.51" rerouteNo="0" devices="tripinfo_SN.0 routing_SN.0" vType="DEFAULT_VEHTYPE" speedFactor="1.04" vaporized=""/>
    <tripinfo id="SW.0" depart="0.00" departLane="3_1_3" departPos="5.10" departSpeed="0.00" departDelay="0.00" arrival="71.50" arrivalLane="1_2_1" arrivalPos="186.40" arrivalSpeed="12.78" duration="71.50" routeLength="392.89" waitingTime="31.00" waitingCount="1" stopTime="0.00" timeLoss="40.25" rerouteNo="0" devices="tripinfo_SW.0 routing_SW.0" vType="DEFAULT_VEHTYPE" speedFactor="1.14" vaporized=""/>
    <tripinfo id="NS.1" depart="23.50" departLane="5_1_1" departPos="5.10" departSpeed="0.00" departDelay="0.06" arrival="72.50" arrivalLane="1_3_1" arrivalPos="189.60" arrivalSpeed="10.73" duration="49.00" routeLength="395.22" waitingTime="4.50" waitingCount="2" stopTime="0.00" timeLoss="11.72" rerouteNo="0" devices="tripinfo_NS.1 routing_NS.1" vType="DEFAULT_VEHTYPE" speedFactor="0.96" vaporized=""/>
    <tripinfo id="SN.1" depart="34.50" departLane="3_1_1" departPos="5.10" departSpeed="0.00" departDelay="0.41" arrival="83.00" arrivalLane="1_5_1" arrivalPos="189.60" arrivalSpeed="11.66" duration="48.50" routeLength="395.22" waitingTime="7.00" waitingCount="1" stopTime="0.00" timeLoss="14.26" rerouteNo="0" devices="tripinfo_SN.1 routing_SN.1" vType="DEFAULT_VEHTYPE" speedFactor="1.04" vaporized=""/>
    <tripinfo id="NS.2" depart="47.00" departLane="5_1_2" departPos="5.10" departSpeed="0.00" departDelay="0.12" arrival="89.50" arrivalLane="1_3_1" arrivalPos="189.60" arrivalSpeed="9.91" duration="42.50" routeLength="395.22" waitingTime="0.00" waitingCount="0" stopTime="0.00" timeLoss="2.36" rerouteNo="0" devices="tripinfo_NS.2 routing_NS.2" vType="DEFAULT_VEHTYPE" speedFactor="0.88" vaporized=""/>
    <tripinfo id="NW.1" depart="62.50" departLane="5_1_1" departPos="5.10" departSpeed="0.00" departDelay="0.00" arrival="99.00" arrivalLane="1_2_1" arrivalPos="186.40" arrivalSpeed="12.27" duration="36.50" routeLength="382.62" waitingTime="0.00" waitingCount="0" stopTime="0.00" timeLoss="4.76" rerouteNo="0" devices="tripinfo_NW.1 routing_NW.1" vType="DEFAULT_VEHTYPE" speedFactor="1.10" vaporized=""/>
    <tripinfo id="SN.2" depart="68.50" departLane="3_1_2" departPos="5.10" departSpeed="0.00" departDelay="0.32" arrival="106.50" arrivalLane="1_5_1" arrivalPos="189.60" arrivalSpeed="11.34" duration="38.00" routeLength="395.22" waitingTime="0.00" waitingCount="0" stopTime="0.00" timeLoss="2.87" rerouteNo="0" devices="tripinfo_SN.2 routing_SN.2" vType="DEFAULT_VEHTYPE" speedFactor="1.01" vaporized=""/>
    <tripinfo id="SE.1" depart="68.50" departLane="3_1_1" departPos="5.10" departSpeed="0.00" departDelay="0.32" arrival="108.00" arrivalLane="1_4_1" arrivalPos="186.40" arrivalSpeed="10.65" duration="39.50" routeLength="379.93" waitingTime="0.00" waitingCount="0" stopTime="0.00" timeLoss="2.80" rerouteNo="0" devices="tripinfo_SE.1 routing_SE.1" vType="DEFAULT_VEHTYPE" speedFactor="0.95" vaporized=""/>
    <tripinfo id="NS.3" depart="70.50" departLane="5_1_2" departPos="5.10" departSpeed="0.00" departDelay="0.19" arrival="109.00" arrivalLane="1_3_1" arrivalPos="189.60" arrivalSpeed="10.86" duration="38.50" routeLength="395.22" waitingTime="0.00" waitingCount="0" stopTime="0.00" timeLoss="2.11" rerouteNo="0" devices="tripinfo_NS.3 routing_NS.3" vType="DEFAULT_VEHTYPE" speedFactor="0.97" vaporized=""/>
    <tripinfo id="WE.1" depart="62.50" departLane="2_1_1" departPos="5.10" departSpeed="0.00" departDelay="0.00" arrival="119.00" arrivalLane="1_4_1" arrivalPos="186.40" arrivalSpeed="12.63" duration="56.50" routeLength="395.13" waitingTime="16.00" waitingCount="1" stopTime="0.00" timeLoss="24.91" rerouteNo="0" devices="tripinfo_WE.1 routing_WE.1" vType="DEFAULT_VEHTYPE" speedFactor="1.13" vaporized=""/>
    <tripinfo id="WS.1" depart="83.50" departLane="2_1_1" departPos="5.10" departSpeed="0.00" departDelay="0.17" arrival="123.50" arrivalLane="1_3_1" arrivalPos="189.60" arrivalSpeed="11.08" duration="40.00" routeLength="385.10" waitingTime="0.00" waitingCount="0" stopTime="0.00" timeLoss="4.53" rerouteNo="0" devices="tripinfo_WS.1 routing_WS.1" vType="DEFAULT_VEHTYPE" speedFactor="0.99" vaporized=""/>
    <tripinfo id="NS.4" depart="94.00" departLane="5_1_1" departPos="5.10" departSpeed="0.00" departDelay="0.25" arrival="133.00" arrivalLane="1_3_1" arrivalPos="189.60" arrivalSpeed="11.47" duration="39.00" routeLength="395.22" waitingTime="0.00" waitingCount="0" stopTime="0.00" timeLoss="4.13" rerouteNo="0" devices="tripinfo_NS.4 routing_NS.4" vType="DEFAULT_VEHTYPE" speedFactor="1.02" vaporized=""/>
    <tripinfo id="SN.3" depart="102.50" departLane="3_1_1" departPos="5.10" departSpeed="0.00" departDelay="0.23" arrival="141.00" arrivalLane="1_5_1" arrivalPos="189.60" arrivalSpeed="11.00" duration="38.50" routeLength="395.22" waitingTime="0.00" waitingCount="0" stopTime="0.00" timeLoss="3.18" rerouteNo="0" devices="tripinfo_SN.3 routing_SN.3" vType="DEFAULT_VEHTYPE" speedFactor="1.01" vaporized=""/>
    <tripinfo id="NS.5" depart="117.50" departLane="5_1_1" departPos="5.10" departSpeed="0.00" departDelay="0.31" arrival="156.50" arrivalLane="1_3_1" arrivalPos="189.60" arrivalSpeed="10.89" duration="39.00" routeLength="395.22" waitingTime="0.00" waitingCount="0" stopTime="0.00" timeLoss="2.46" rerouteNo="0" devices="tripinfo_NS.5 routing_NS.5" vType="DEFAULT_VEHTYPE" speedFactor="0.97" vaporized=""/>
    <tripinfo id="NW.2" depart="125.00" departLane="5_1_1" departPos="5.10" departSpeed="0.00" departDelay="0.00" arrival="162.50" arrivalLane="1_2_1" arrivalPos="186.40" arrivalSpeed="11.65" duration="37.50" routeLength="382.62" waitingTime="0.00" waitingCount="0" stopTime="0.00" timeLoss="3.82" rerouteNo="0" devices="tripinfo_NW.2 routing_NW.2" vType="DEFAULT_VEHTYPE" speedFactor="1.04" vaporized=""/>
    <personinfo id="person_SE_diag.0" depart="2.00" type="DEFAULT_PEDTYPE" speedFactor="0.90" duration="166.00" waitingTime="0.00" timeLoss="16.12" traveltime="166.00">
        <walk depart="2.00" departPos="100.00" arrival="168.00" arrivalPos="93.20" duration="166.00" routeLength="187.66" timeLoss="16.12" maxSpeed="1.25"/>
    </personinfo>
    <tripinfo id="SE.2" depart="136.50" departLane="3_1_1" departPos="5.10" departSpeed="0.00" departDelay="0.14" arrival="172.50" arrivalLane="1_4_1" arrivalPos="186.40" arrivalSpeed="12.45" duration="36.00" routeLength="379.93" waitingTime="0.00" waitingCount="0" stopTime="0.00" timeLoss="4.73" rerouteNo="0" devices="tripinfo_SE.2 routing_SE.2" vType="DEFAULT_VEHTYPE" speedFactor="1.11" vaporized=""/>
    <tripinfo id="SN.4" depart="136.50" departLane="3_1_2" departPos="5.10" departSpeed="0.00" departDelay="0.14" arrival="176.50" arrivalLane="1_5_2" arrivalPos="189.60" arrivalSpeed="10.44" duration="40.00" routeLength="395.22" waitingTime="0.00" waitingCount="0" stopTime="0.00" timeLoss="1.76" rerouteNo="0" devices="tripinfo_SN.4 routing_SN.4" vType="DEFAULT_VEHTYPE" speedFactor="0.93" vaporized=""/>
    <personinfo id="person_EW_n.0" depart="15.50" type="DEFAULT_PEDTYPE" speedFactor="1.17" duration="163.50" waitingTime="0.00" timeLoss="34.05" traveltime="163.50">
        <walk depart="15.50" departPos="100.00" arrival="179.00" arrivalPos="93.20" duration="163.50" routeLength="210.56" timeLoss="34.05" maxSpeed="1.63"/>
    </personinfo>
    <tripinfo id="NS.6" depart="141.00" departLane="5_1_2" departPos="5.10" departSpeed="0.00" departDelay="0.37" arrival="183.00" arrivalLane="1_3_1" arrivalPos="189.60" arrivalSpeed="9.83" duration="42.00" routeLength="395.22" waitingTime="0.00" waitingCount="0" stopTime="0.00" timeLoss="1.74" rerouteNo="0" devices="tripinfo_NS.6 routing_NS.6" vType="DEFAULT_VEHTYPE" speedFactor="0.88" vaporized=""/>
    <personinfo id="person_WE_n.0" depart="12.50" type="DEFAULT_PEDTYPE" speedFactor="1.09" duration="172.50" waitingTime="0.00" timeLoss="24.69" traveltime="172.50">
        <walk depart="12.50" departPos="100.00" arrival="185.00" arrivalPos="93.20" duration="172.50" routeLength="224.16" timeLoss="24.69" maxSpeed="1.52"/>
    </personinfo>
    <personinfo id="person_EW_n.1" depart="29.00" type="DEFAULT_PEDTYPE" speedFactor="1.04" duration="162.00" waitingTime="0.00" timeLoss="16.23" traveltime="162.00">
        <walk depart="29.00" departPos="100.00" arrival="191.00" arrivalPos="93.20" duration="162.00" routeLength="210.56" timeLoss="16.23" maxSpeed="1.44"/>
    </personinfo>
    <personinfo id="person_WE_s.0" depart="2.00" type="DEFAULT_PEDTYPE" speedFactor="0.98" duration="191.50" waitingTime="0.00" timeLoss="37.00" traveltime="191.50">
        <walk depart="2.00" departPos="100.00" arrival="193.50" arrivalPos="93.20" duration="191.50" routeLength="209.26" timeLoss="37.00" maxSpeed="1.35"/>
    </personinfo>
    <tripinfo id="NS.7" depart="164.50" departLane="5_1_1" departPos="5.10" departSpeed="0.00" departDelay="0.43" arrival="203.00" arrivalLane="1_3_1" arrivalPos="189.60" arrivalSpeed="11.06" duration="38.50" routeLength="395.22" waitingTime="0.00" waitingCount="0" stopTime="0.00" timeLoss="2.29" rerouteNo="0" devices="tripinfo_NS.7 routing_NS.7" vType="DEFAULT_VEHTYPE" speedFactor="0.99" vaporized=""/>
    <personinfo id="person_NE_diag.0" depart="21.50" type="DEFAULT_PEDTYPE" speedFactor="1.00" duration="184.00" waitingTime="0.00" timeLoss="23.87" traveltime="184.00">
        <walk depart="21.50" departPos="100.00" arrival="205.50" arrivalPos="93.20" duration="184.00" routeLength="223.02" timeLoss="23.87" maxSpeed="1.39"/>
    </personinfo>
    <personinfo id="person_NS_e.0" depart="12.50" type="DEFAULT_PEDTYPE" speedFactor="0.96" duration="193.00" waitingTime="0.00" timeLoss="27.61" traveltime="193.00">
        <walk depart="12.50" departPos="100.00" arrival="205.50" arrivalPos="94.80" duration="193.00" routeLength="219.53" timeLoss="27.61" maxSpeed="1.33"/>
    </personinfo>
    <tripinfo id="SN.5" depart="170.50" departLane="3_1_1" departPos="5.10" departSpeed="0.00" departDelay="0.05" arrival="212.50" arrivalLane="1_5_1" arrivalPos="189.60" arrivalSpeed="9.85" duration="42.00" routeLength="395.22" waitingTime="0.00" waitingCount="0" stopTime="0.00" timeLoss="1.73" rerouteNo="0" devices="tripinfo_SN.5 routing_SN.5" vType="DEFAULT_VEHTYPE" speedFactor="0.88" vaporized=""/>
    <personinfo id="person_SE_diag.1" depart="66.50" type="DEFAULT_PEDTYPE" speedFactor="1.00" duration="151.00" waitingTime="0.00" timeLoss="15.73" traveltime="151.00">
        <walk depart="66.50" departPos="100.00" arrival="217.50" arrivalPos="93.20" duration="151.00" routeLength="187.66" timeLoss="15.73" maxSpeed="1.39"/>
    </personinfo>
    <tripinfo id="WE.2" depart="125.00" departLane="2_1_1" departPos="5.10" departSpeed="0.00" departDelay="0.00" arrival="218.00" arrivalLane="1_4_1" arrivalPos="186.40" arrivalSpeed="12.77" duration="93.00" routeLength="395.13" waitingTime="50.00" waitingCount="1" stopTime="0.00" timeLoss="61.59" rerouteNo="0" devices="tripinfo_WE.2 routing_WE.2" vType="DEFAULT_VEHTYPE" speedFactor="1.14" vaporized=""/>
    <personinfo id="person_NW_diag.0" depart="58.50" type="DEFAULT_PEDTYPE" speedFactor="0.93" duration="165.00" waitingTime="0.00" timeLoss="16.95" traveltime="165.00">
        <walk depart="58.50" departPos="100.00" arrival="223.50" arrivalPos="93.20" duration="165.00" routeLength="190.90" timeLoss="16.95" maxSpeed="1.29"/>
    </personinfo>
    <tripinfo id="EW.1" depart="187.50" departLane="4_1_2" departPos="5.10" departSpeed="0.00" departDelay="0.00" arrival="227.00" arrivalLane="1_2_1" arrivalPos="186.40" arrivalSpeed="10.80" duration="39.50" routeLength="394.90" waitingTime="0.00" waitingCount="0" stopTime="0.00" timeLoss="2.64" rerouteNo="0" devices="tripinfo_EW.1 routing_EW.1" vType="DEFAULT_VEHTYPE" speedFactor="0.96" vaporized=""/>
    <tripinfo id="EN.1" depart="187.50" departLane="4_1_1" departPos="5.10" departSpeed="0.00" departDelay="0.00" arrival="238.50" arrivalLane="1_5_1" arrivalPos="189.60" arrivalSpeed="7.94" duration="51.00" routeLength="382.62" waitingTime="0.00" waitingCount="0" stopTime="0.00" timeLoss="2.06" rerouteNo="0" devices="tripinfo_EN.1 routing_EN.1" vType="DEFAULT_VEHTYPE" speedFactor="0.71" vaporized=""/>
    <tripinfo id="WS.2" depart="167.00" departLane="2_1_1" departPos="5.10" departSpeed="0.00" departDelay="0.33" arrival="239.00" arrivalLane="1_3_1" arrivalPos="189.60" arrivalSpeed="10.97" duration="72.00" routeLength="385.10" waitingTime="22.00" waitingCount="2" stopTime="0.00" timeLoss="35.94" rerouteNo="0" devices="tripinfo_WS.2 routing_WS.2" vType="DEFAULT_VEHTYPE" speedFactor="0.98" vaporized=""/>
    <tripinfo id="NW.3" depart="187.50" departLane="5_1_1" departPos="5.10" departSpeed="0.00" departDelay="0.00" arrival="240.50" arrivalLane="1_2_1" arrivalPos="186.40" arrivalSpeed="11.36" duration="53.00" routeLength="382.62" waitingTime="8.50" waitingCount="1" stopTime="0.00" timeLoss="18.43" rerouteNo="0" devices="tripinfo_NW.3 routing_NW.3" vType="DEFAULT_VEHTYPE" speedFactor="1.01" vaporized=""/>
    <tripinfo id="NE.1" depart="187.50" departLane="5_1_3" departPos="5.10" departSpeed="0.00" departDelay="0.00" arrival="241.00" arrivalLane="1_4_2" arrivalPos="186.40" arrivalSpeed="13.00" duration="53.50" routeLength="392.89" waitingTime="9.00" waitingCount="1" stopTime="0.00" timeLoss="25.89" rerouteNo="0" devices="tripinfo_NE.1 routing_NE.1" vType="DEFAULT_VEHTYPE" speedFactor="1.30" vaporized=""/>
    <tripinfo id="NS.8" depart="188.00" departLane="5_1_2" departPos="5.10" departSpeed="0.00" departDelay="0.50" arrival="247.50" arrivalLane="1_3_1" arrivalPos="189.60" arrivalSpeed="8.43" duration="59.50" routeLength="395.22" waitingTime="2.50" waitingCount="1" stopTime="0.00" timeLoss="12.49" rerouteNo="0" devices="tripinfo_NS.8 routing_NS.8" vType="DEFAULT_VEHTYPE" speedFactor="0.75" vaporized=""/>
    <tripinfo id="WE.3" depart="187.50" departLane="2_1_1" departPos="5.10" departSpeed="0.00" departDelay="0.00" arrival="249.00" arrivalLane="1_4_1" arrivalPos="186.40" arrivalSpeed="9.37" duration="61.50" routeLength="395.13" waitingTime="10.50" waitingCount="2" stopTime="0.00" timeLoss="18.82" rerouteNo="0" devices="tripinfo_WE.3 routing_WE.3" vType="DEFAULT_VEHTYPE" speedFactor="0.84" vaporized=""/>
    <tripinfo id="SN.6" depart="205.00" departLane="3_1_2" departPos="5.10" departSpeed="0.00" departDelay="0.45" arrival="253.00" arrivalLane="1_5_1" arrivalPos="189.60" arrivalSpeed="11.70" duration="48.00" routeLength="395.22" waitingTime="7.00" waitingCount="1" stopTime="0.00" timeLoss="14.13" rerouteNo="0" devices="tripinfo_SN.6 routing_SN.6" vType="DEFAULT_VEHTYPE" speedFactor="1.04" vaporized=""/>
    <tripinfo id="NS.9" depart="211.00" departLane="5_1_1" departPos="5.10" departSpeed="0.00" departDelay="0.06" arrival="254.50" arrivalLane="1_3_1" arrivalPos="189.60" arrivalSpeed="10.72" duration="43.50" routeLength="395.22" waitingTime="0.50" waitingCount="1" stopTime="0.00" timeLoss="6.49" rerouteNo="0" devices="tripinfo_NS.9 routing_NS.9" vType="DEFAULT_VEHTYPE" speedFactor="0.96" vaporized=""/>
    <personinfo id="person_SE_diag.2" depart="126.50" type="DEFAULT_PEDTYPE" speedFactor="1.15" duration="131.50" waitingTime="0.00" timeLoss="13.86" traveltime="131.50">
        <walk depart="126.50" departPos="100.00" arrival="258.00" arrivalPos="93.20" duration="131.50" routeLength="187.66" timeLoss="13.86" maxSpeed="1.60"/>
    </personinfo>
    <tripinfo id="SE.3" depart="205.00" departLane="3_1_1" departPos="5.10" departSpeed="0.00" departDelay="0.45" arrival="260.50" arrivalLane="1_4_1" arrivalPos="186.40" arrivalSpeed="12.68" duration="55.50" routeLength="379.93" waitingTime="15.00" waitingCount="2" stopTime="0.00" timeLoss="24.79" rerouteNo="0" devices="tripinfo_SE.3 routing_SE.3" vType="DEFAULT_VEHTYPE" speedFactor="1.13" vaporized=""/>
    <personinfo id="person_NW_diag.1" depart="89.50" type="DEFAULT_PEDTYPE" speedFactor="0.88" duration="174.50" waitingTime="0.00" timeLoss="18.06" traveltime="174.50">
        <walk depart="89.50" departPos="100.00" arrival="264.00" arrivalPos="93.20" duration="174.50" routeLength="190.90" timeLoss="18.06" maxSpeed="1.22"/>
    </personinfo>
    <tripinfo id="NS.10" depart="234.50" departLane="5_1_1" departPos="5.10" departSpeed="0.00" departDelay="0.12" arrival="272.50" arrivalLane="1_3_1" arrivalPos="189.60" arrivalSpeed="12.64" duration="38.00" routeLength="395.22" waitingTime="0.00" waitingCount="0" stopTime="0.00" timeLoss="6.45" rerouteNo="0" devices="tripinfo_NS.10 routing_NS.10" vType="DEFAULT_VEHTYPE" speedFactor="1.13" vaporized=""/>
    <personinfo id="person_WE_s.2" depart="64.50" type="DEFAULT_PEDTYPE" speedFactor="1.20" duration="209.50" waitingTime="0.00" timeLoss="83.99" traveltime="209.50">
        <walk depart="64.50" departPos="100.00" arrival="274.00" arrivalPos="93.20" duration="209.50" routeLength="209.26" timeLoss="83.99" maxSpeed="1.67"/>
    </personinfo>
    <personinfo id="person_SN_e.0" depart="113.00" type="DEFAULT_PEDTYPE" speedFactor="1.04" duration="161.00" waitingTime="0.00" timeLoss="16.21" traveltime="161.00">
        <walk depart="113.00" departPos="100.00" arrival="274.00" arrivalPos="94.80" duration="161.00" routeLength="209.13" timeLoss="16.21" maxSpeed="1.44"/>
    </personinfo>
    <personinfo id="person_WE_s.1" depart="54.50" type="DEFAULT_PEDTYPE" speedFactor="1.08" duration="229.00" waitingTime="0.00" timeLoss="89.84" traveltime="229.00">
        <walk depart="54.50" departPos="100.00" arrival="283.50" arrivalPos="93.20" duration="229.00" routeLength="209.26" timeLoss="89.84" maxSpeed="1.50"/>
    </personinfo>
    <personinfo id="person_NE_diag.2" depart="102.50" type="DEFAULT_PEDTYPE" speedFactor="1.09" duration="181.00" waitingTime="0.00" timeLoss="31.62" traveltime="181.00">
        <walk depart="102.50" departPos="100.00" arrival="283.50" arrivalPos="93.20" duration="181.00" routeLength="225.71" timeLoss="31.62" maxSpeed="1.51"/>
    </personinfo>
    <personinfo id="person_WE_s.4" depart="124.50" type="DEFAULT_PEDTYPE" speedFactor="1.08" duration="159.50" waitingTime="0.00" timeLoss="19.70" traveltime="159.50">
        <walk depart="124.50" departPos="100.00" arrival="284.00" arrivalPos="93.20" duration="159.50" routeLength="209.26" timeLoss="19.70" maxSpeed="1.50"/>
    </personinfo>
    <personinfo id="person_WE_n.2" depart="80.00" type="DEFAULT_PEDTYPE" speedFactor="1.09" duration="204.00" waitingTime="0.00" timeLoss="55.66" traveltime="204.00">
        <walk depart="80.00" departPos="100.00" arrival="284.00" arrivalPos="93.20" duration="204.00" routeLength="224.16" timeLoss="55.66" maxSpeed="1.51"/>
    </personinfo>
    <personinfo id="person_EW_n.8" depart="118.00" type="DEFAULT_PEDTYPE" speedFactor="1.12" duration="167.50" waitingTime="0.00" timeLoss="32.20" traveltime="167.50">
        <walk depart="118.00" departPos="100.00" arrival="285.50" arrivalPos="93.20" duration="167.50" routeLength="210.56" timeLoss="32.20" maxSpeed="1.56"/>
    </personinfo>
    <personinfo id="person_NS_e.1" depart="71.50" type="DEFAULT_PEDTYPE" speedFactor="0.82" duration="214.00" waitingTime="0.00" timeLoss="21.74" traveltime="214.00">
        <walk depart="71.50" departPos="100.00" arrival="285.50" arrivalPos="94.80" duration="214.00" routeLength="219.53" timeLoss="21.74" maxSpeed="1.14"/>
    </personinfo>
    <personinfo id="person_WE_s.3" depart="77.50" type="DEFAULT_PEDTYPE" speedFactor="1.05" duration="209.50" waitingTime="0.00" timeLoss="65.43" traveltime="209.50">
        <walk depart="77.50" departPos="100.00" arrival="287.00" arrivalPos="93.20" duration="209.50" routeLength="209.26" timeLoss="65.43" maxSpeed="1.45"/>
    </personinfo>
    <tripinfo id="SN.7" depart="239.00" departLane="3_1_1" departPos="5.10" departSpeed="0.00" departDelay="0.36" arrival="288.00" arrivalLane="1_5_1" arrivalPos="189.60" arrivalSpeed="10.80" duration="49.00" routeLength="395.22" waitingTime="6.50" waitingCount="1" stopTime="0.00" timeLoss="12.35" rerouteNo="0" devices="tripinfo_SN.7 routing_SN.7" vType="DEFAULT_VEHTYPE" speedFactor="0.96" vaporized=""/>
    <personinfo id="person_EW_n.6" depart="107.50" type="DEFAULT_PEDTYPE" speedFactor="1.08" duration="181.00" waitingTime="0.00" timeLoss="40.68" traveltime="181.00">
        <walk depart="107.50" departPos="100.00" arrival="288.50" arrivalPos="93.20" duration="181.00" routeLength="210.56" timeLoss="40.68" maxSpeed="1.50"/>
    </personinfo>
    <tripinfo id="NW.4" depart="250.00" departLane="5_1_1" departPos="5.10" departSpeed="0.00" departDelay="0.00" arrival="289.50" arrivalLane="1_2_1" arrivalPos="186.40" arrivalSpeed="10.98" duration="39.50" routeLength="382.62" waitingTime="0.00" waitingCount="0" stopTime="0.00" timeLoss="3.79" rerouteNo="0" devices="tripinfo_NW.4 routing_NW.4" vType="DEFAULT_VEHTYPE" speedFactor="0.98" vaporized=""/>
    <tripinfo id="NS.11" depart="258.00" departLane="5_1_2" departPos="5.10" departSpeed="0.00" departDelay="0.18" arrival="293.50" arrivalLane="1_3_1" arrivalPos="189.60" arrivalSpeed="13.00" duration="35.50" routeLength="395.22" waitingTime="0.00" waitingCount="0" stopTime="0.00" timeLoss="7.28" rerouteNo="0" devices="tripinfo_NS.11 routing_NS.11" vType="DEFAULT_VEHTYPE" speedFactor="1.26" vaporized=""/>
    <personinfo id="person_NW_diag.3" depart="160.50" type="DEFAULT_PEDTYPE" speedFactor="1.13" duration="135.00" waitingTime="0.00" timeLoss="13.03" traveltime="135.00">
        <walk depart="160.50" departPos="100.00" arrival="295.50" arrivalPos="93.20" duration="135.00" routeLength="190.90" timeLoss="13.03" maxSpeed="1.57"/>
    </personinfo>
    <personinfo id="person_SW_diag.0" depart="59.00" type="DEFAULT_PEDTYPE" speedFactor="0.97" duration="239.00" waitingTime="0.00" timeLoss="68.15" traveltime="239.00">
        <walk depart="59.00" departPos="100.00" arrival="298.00" arrivalPos="93.20" duration="239.00" routeLength="230.53" timeLoss="68.15" maxSpeed="1.35"/>
    </personinfo>
    <personinfo id="person_NW_diag.2" depart="108.50" type="DEFAULT_PEDTYPE" speedFactor="0.80" duration="189.50" waitingTime="0.00" timeLoss="18.69" traveltime="189.50">
        <walk depart="108.50" departPos="100.00" arrival="298.00" arrivalPos="93.20" duration="189.50" routeLength="190.90" timeLoss="18.69" maxSpeed="1.12"/>
    </personinfo>
    <personinfo id="person_EW_n.2" depart="36.50" type="DEFAULT_PEDTYPE" speedFactor="0.96" duration="262.00" waitingTime="0.00" timeLoss="104.23" traveltime="262.00">
        <walk depart="36.50" departPos="100.00" arrival="298.50" arrivalPos="93.20" duration="262.00" routeLength="210.56" timeLoss="104.23" maxSpeed="1.33"/>
    </personinfo>
    <personinfo id="person_WE_n.1" depart="22.50" type="DEFAULT_PEDTYPE" speedFactor="0.93" duration="276.00" waitingTime="0.00" timeLoss="103.11" traveltime="276.00">
        <walk depart="22.50" departPos="100.00" arrival="298.50" arrivalPos="93.20" duration="276.00" routeLength="224.16" timeLoss="103.11" maxSpeed="1.30"/>
    </personinfo>
    <personinfo id="person_EW_n.3" depart="65.50" type="DEFAULT_PEDTYPE" speedFactor="0.97" duration="233.50" waitingTime="0.00" timeLoss="77.67" traveltime="233.50">
        <walk depart="65.50" departPos="100.00" arrival="299.00" arrivalPos="93.20" duration="233.50" routeLength="210.56" timeLoss="77.67" maxSpeed="1.35"/>
    </personinfo>
    <personinfo id="person_WE_n.3" depart="101.50" type="DEFAULT_PEDTYPE" speedFactor="0.95" duration="197.50" waitingTime="0.00" timeLoss="27.95" traveltime="197.50">
        <walk depart="101.50" departPos="100.00" arrival="299.00" arrivalPos="93.20" duration="197.50" routeLength="224.16" timeLoss="27.95" maxSpeed="1.32"/>
    </personinfo>
    <personinfo id="person_NE_diag.1" depart="40.50" type="DEFAULT_PEDTYPE" speedFactor="0.90" duration="259.50" waitingTime="0.00" timeLoss="78.37" traveltime="259.50">
        <walk depart="40.50" departPos="100.00" arrival="300.00" arrivalPos="93.20" duration="259.50" routeLength="225.71" timeLoss="78.37" maxSpeed="1.25"/>
    </personinfo>