<?xml version="1.0" encoding="UTF-8"?>

<!-- generated on 2025-03-17 12:59:31 by Eclipse SUMO GUI Version 1.22.0
<sumoConfiguration xmlns:xsi="http://www.w3.org/2001/XMLSchema-instance" xsi:noNamespaceSchemaLocation="http://sumo.dlr.de/xsd/sumoConfiguration.xsd">

    <input>
        <net-file value="C:\Users\chris\PycharmProjects\UW_CET593_project2\environment/network_model/UW_intersection_pedestrian_X.net.xml"/>
        <route-files value="C:\Users\chris\PycharmProjects\UW_CET593_project2\environment/network_model/UW_IntersectionNormalDemand.rou.xml"/>
        <additional-files value="C:\Users\chris\PycharmProjects\UW_CET593_project2\environment/network_model/UW_intersection_Concurrent.add.xml"/>
    </input>

    <output>
        <queue-output value="C:\Users\chris\PycharmProjects\UW_CET593_project2\environment/simulation_data/UW_intersection/queues_multi_scale_symmetric_pene_80.xml"/>
        <tripinfo-output value="C:\Users\chris\PycharmProjects\UW_CET593_project2\environment/simulation_data/UW_intersection/tripinfo_multi_scale_symmetric_pene_80.xml"/>
    </output>

    <time>
        <begin value="0"/>
        <step-length value="0.5"/>
    </time>

    <processing>
        <waiting-time-memory value="1000"/>
    </processing>

    <report>
        <verbose value="true"/>
        <no-step-log value="true"/>
    </report>

    <traci_server>
        <remote-port value="51791"/>
    </traci_server>

    <gui_only>
        <start value="true"/>
    </gui_only>

</sumoConfiguration>
-->

<tripinfos xmlns:xsi="http://www.w3.org/2001/XMLSchema-instance" xsi:noNamespaceSchemaLocation="http://sumo.dlr.de/xsd/tripinfo_file.xsd">
    <tripinfo id="WE.0" depart="0.00" departLane="2_1_1" departPos="5.10" departSpeed="0.00" departDelay="0.00" arrival="41.00" arrivalLane="1_4_1" arrivalPos="186.40" arrivalSpeed="12.26" duration="41.00" routeLength="395.13" waitingTime="0.00" waitingCount="0" stopTime="0.00" timeLoss="8.62" rerouteNo="0" devices="tripinfo_WE.0 routing_WE.0" vType="DEFAULT_VEHTYPE" speedFactor="1.09" vaporized=""/>
    <tripinfo id="EN.0" depart="0.00" departLane="4_1_1" departPos="5.10" departSpeed="0.00" departDelay="0.00" arrival="42.00" arrivalLane="1_5_1" arrivalPos="189.60" arrivalSpeed="10.98" duration="42.00" routeLength="382.62" waitingTime="0.00" waitingCount="0" stopTime="0.00" timeLoss="6.30" rerouteNo="0" devices="tripinfo_EN.0 routing_EN.0" vType="DEFAULT_VEHTYPE" speedFactor="0.98" vaporized=""/>
    <tripinfo id="WN.0" depart="2.50" departLane="2_1_1" departPos="5.10" departSpeed="0.00" departDelay="2.50" arrival="43.50" arrivalLane="1_5_2" arrivalPos="189.60" arrivalSpeed="12.46" duration="41.00" routeLength="392.90" waitingTime="0.00" waitingCount="0" stopTime="0.00" timeLoss="9.16" rerouteNo="0" devices="tripinfo_WN.0 routing_WN.0" vType="DEFAULT_VEHTYPE" speedFactor="1.11" vaporized=""/>
    <tripinfo id="ES.0" depart="0.00" departLane="4_1_2" departPos="5.10" departSpeed="0.00" departDelay="0.00" arrival="45.50" arrivalLane="1_3_2" arrivalPos="189.60" arrivalSpeed="11.68" duration="45.50" routeLength="392.89" waitingTime="1.50" waitingCount="1" stopTime="0.00" timeLoss="11.46" rerouteNo="0" devices="tripinfo_ES.0 routing_ES.0" vType="DEFAULT_VEHTYPE" speedFactor="1.04" vaporized=""/>
    <tripinfo id="WS.0" depart="5.00" departLane="2_1_1" departPos="5.10" departSpeed="0.00" departDelay="5.00" arrival="45.50" arrivalLane="1_3_1" arrivalPos="189.60" arrivalSpeed="12.02" duration="40.50" routeLength="385.10" waitingTime="0.00" waitingCount="0" stopTime="0.00" timeLoss="7.98" rerouteNo="0" devices="tripinfo_WS.0 routing_WS.0" vType="DEFAULT_VEHTYPE" speedFactor="1.07" vaporized=""/>
    <tripinfo id="EW.0" depart="2.50" departLane="4_1_2" departPos="5.10" departSpeed="0.00" departDelay="2.50" arrival="48.50" arrivalLane="1_2_1" arrivalPos="186.40" arrivalSpeed="10.99" duration="46.00" routeLength="394.90" waitingTime="0.50" waitingCount="1" stopTime="0.00" timeLoss="9.76" rerouteNo="0" devices="tripinfo_EW.0 routing_EW.0" vType="DEFAULT_VEHTYPE" speedFactor="0.98" vaporized=""/>
    <tripinfo id="NS.1" depart="19.00" departLane="5_1_2" departPos="5.10" departSpeed="0.00" departDelay="0.25" arrival="55.50" arrivalLane="1_3_2" arrivalPos="189.60" arrivalSpeed="13.00" duration="36.50" routeLength="395.22" waitingTime="0.00" waitingCount="0" stopTime="0.00" timeLoss="7.36" rerouteNo="0" devices="tripinfo_NS.1 routing_NS.1" vType="DEFAULT_VEHTYPE" speedFactor="1.21" vaporized=""/>
    <tripinfo id="NS.0" depart="0.00" departLane="5_1_1" departPos="5.10" departSpeed="0.00" departDelay="0.00" arrival="58.50" arrivalLane="1_3_1" arrivalPos="189.60" arrivalSpeed="11.84" duration="58.50" routeLength="395.22" waitingTime="18.00" waitingCount="1" stopTime="0.00" timeLoss="25.03" rerouteNo="0" devices="tripinfo_NS.0 routing_NS.0" vType="DEFAULT_VEHTYPE" speedFactor="1.06" vaporized=""/>
    <tripinfo id="SE.0" depart="0.00" departLane="3_1_1" departPos="5.10" departSpeed="0.00" departDelay="0.00" arrival="58.50" arrivalLane="1_4_1" arrivalPos="186.40" arrivalSpeed="11.10" duration="58.50" routeLength="379.93" waitingTime="18.00" waitingCount="1" stopTime="0.00" timeLoss="23.49" rerouteNo="0" devices="tripinfo_SE.0 routing_SE.0" vType="DEFAULT_VEHTYPE" speedFactor="0.99" vaporized=""/>
    <tripinfo id="SN.0" depart="0.00" departLane="3_1_2" departPos="5.10" departSpeed="0.00" departDelay="0.00" arrival="59.00" arrivalLane="1_5_2" arrivalPos="189.60" arrivalSpeed="11.73" duration="59.00" routeLength="395.22" waitingTime="18.00" waitingCount="1" stopTime="0.00" timeLoss="24.87" rerouteNo="0" devices="tripinfo_SN.0 routing_SN.0" vType="DEFAULT_VEHTYPE" speedFactor="1.05" vaporized=""/>
    <tripinfo id="NE.0" depart="0.00" departLane="5_1_3" departPos="5.10" departSpeed="0.00" departDelay="0.00" arrival="63.50" arrivalLane="1_4_2" arrivalPos="186.40" arrivalSpeed="10.71" duration="63.50" routeLength="392.89" waitingTime="19.00" waitingCount="2" stopTime="0.00" timeLoss="26.50" rerouteNo="0" devices="tripinfo_NE.0 routing_NE.0" vType="DEFAULT_VEHTYPE" speedFactor="0.96" vaporized=""/>
    <tripinfo id="NW.0" depart="2.50" departLane="5_1_1" departPos="5.10" departSpeed="0.00" departDelay="2.50" arrival="67.00" arrivalLane="1_2_1" arrivalPos="186.40" arrivalSpeed="11.06" duration="64.50" routeLength="382.62" waitingTime="15.00" waitingCount="2" stopTime="0.00" timeLoss="29.27" rerouteNo="0" devices="tripinfo_NW.0 routing_NW.0" vType="DEFAULT_VEHTYPE" speedFactor="0.99" vaporized=""/>
    <tripinfo id="SN.1" depart="27.50" departLane="3_1_1" departPos="5.10" departSpeed="0.00" departDelay="0.23" arrival="69.50" arrivalLane="1_5_1" arrivalPos="189.60" arrivalSpeed="12.89" duration="42.00" routeLength="395.22" waitingTime="2.00" waitingCount="1" stopTime="0.00" timeLoss="10.99" rerouteNo="0" devices="tripinfo_SN.1 routing_SN.1" vType="DEFAULT_VEHTYPE" speedFactor="1.15" vaporized=""/>
    <tripinfo id="SW.0" depart="0.00" departLane="3_1_3" departPos="5.10" departSpeed="0.00" departDelay="0.00" arrival="70.50" arrivalLane="1_2_1" arrivalPos="186.40" arrivalSpeed="10.12" duration="70.50" routeLength="392.89" waitingTime="22.50" waitingCount="2" stopTime="0.00" timeLoss="31.37" rerouteNo="0" devices="tripinfo_SW.0 routing_SW.0" vType="DEFAULT_VEHTYPE" speedFactor="0.90" vaporized=""/>
    <tripinfo id="NS.2" depart="37.50" departLane="5_1_1" departPos="5.10" departSpeed="0.00" departDelay="0.00" arrival="74.00" arrivalLane="1_3_1" arrivalPos="189.60" arrivalSpeed="12.68" duration="36.50" routeLength="395.22" waitingTime="0.00" waitingCount="0" stopTime="0.00" timeLoss="5.07" rerouteNo="0" devices="tripinfo_NS.2 routing_NS.2" vType="DEFAULT_VEHTYPE" speedFactor="1.13" vaporized=""/>
    <tripinfo id="NW.1" depart="50.00" departLane="5_1_1" departPos="5.10" departSpeed="0.00" departDelay="0.00" arrival="88.50" arrivalLane="1_2_1" arrivalPos="186.40" arrivalSpeed="10.92" duration="38.50" routeLength="382.62" waitingTime="0.00" waitingCount="0" stopTime="0.00" timeLoss="2.68" rerouteNo="0" devices="tripinfo_NW.1 routing_NW.1" vType="DEFAULT_VEHTYPE" speedFactor="0.98" vaporized=""/>
    <tripinfo id="SN.2" depart="55.00" departLane="3_1_2" departPos="5.10" departSpeed="0.00" departDelay="0.45" arrival="90.00" arrivalLane="1_5_2" arrivalPos="189.60" arrivalSpeed="12.95" duration="35.00" routeLength="395.22" waitingTime="0.00" waitingCount="0" stopTime="0.00" timeLoss="4.50" rerouteNo="0" devices="tripinfo_SN.2 routing_SN.2" vType="DEFAULT_VEHTYPE" speedFactor="1.16" vaporized=""/>
    <tripinfo id="NS.3" depart="56.50" departLane="5_1_2" departPos="5.10" departSpeed="0.00" departDelay="0.25" arrival="99.00" arrivalLane="1_3_1" arrivalPos="189.60" arrivalSpeed="9.79" duration="42.50" routeLength="395.22" waitingTime="0.00" waitingCount="0" stopTime="0.00" timeLoss="1.95" rerouteNo="0" devices="tripinfo_NS.3 routing_NS.3" vType="DEFAULT_VEHTYPE" speedFactor="0.87" vaporized=""/>
    <tripinfo id="SE.1" depart="55.00" departLane="3_1_1" departPos="5.10" departSpeed="0.00" departDelay="0.46" arrival="99.50" arrivalLane="1_4_1" arrivalPos="186.40" arrivalSpeed="12.70" duration="44.50" routeLength="379.93" waitingTime="6.50" waitingCount="1" stopTime="0.00" timeLoss="13.70" rerouteNo="0" devices="tripinfo_SE.1 routing_SE.1" vType="DEFAULT_VEHTYPE" speedFactor="1.13" vaporized=""/>
    <tripinfo id="WE.1" depart="50.00" departLane="2_1_1" departPos="5.10" departSpeed="0.00" departDelay="0.00" arrival="106.50" arrivalLane="1_4_1" arrivalPos="186.40" arrivalSpeed="13.00" duration="56.50" routeLength="395.13" waitingTime="16.00" waitingCount="1" stopTime="0.00" timeLoss="26.37" rerouteNo="0" devices="tripinfo_WE.1 routing_WE.1" vType="DEFAULT_VEHTYPE" speedFactor="1.18" vaporized=""/>
    <tripinfo id="WS.1" depart="67.00" departLane="2_1_1" departPos="5.10" departSpeed="0.00" departDelay="0.33" arrival="120.00" arrivalLane="1_3_1" arrivalPos="189.60" arrivalSpeed="9.71" duration="53.00" routeLength="385.10" waitingTime="5.00" waitingCount="1" stopTime="0.00" timeLoss="12.34" rerouteNo="0" devices="tripinfo_WS.1 routing_WS.1" vType="DEFAULT_VEHTYPE" speedFactor="0.87" vaporized=""/>
    <tripinfo id="SN.3" depart="82.00" departLane="3_1_1" departPos="5.10" departSpeed="0.00" departDelay="0.18" arrival="122.50" arrivalLane="1_5_1" arrivalPos="189.60" arrivalSpeed="10.50" duration="40.50" routeLength="395.22" waitingTime="0.00" waitingCount="0" stopTime="0.00" timeLoss="2.57" rerouteNo="0" devices="tripinfo_SN.3 routing_SN.3" vType="DEFAULT_VEHTYPE" speedFactor="0.94" vaporized=""/>
    <tripinfo id="NS.4" depart="75.00" departLane="5_1_2" departPos="5.10" departSpeed="0.00" departDelay="0.00" arrival="124.00" arrivalLane="1_3_1" arrivalPos="189.60" arrivalSpeed="9.24" duration="49.00" routeLength="395.22" waitingTime="1.50" waitingCount="1" stopTime="0.00" timeLoss="6.16" rerouteNo="0" devices="tripinfo_NS.4 routing_NS.4" vType="DEFAULT_VEHTYPE" speedFactor="0.82" vaporized=""/>
    <tripinfo id="NS.5" depart="94.00" departLane="5_1_2" departPos="5.10" departSpeed="0.00" departDelay="0.25" arrival="132.50" arrivalLane="1_3_1" arrivalPos="189.60" arrivalSpeed="11.28" duration="38.50" routeLength="395.22" waitingTime="0.00" waitingCount="0" stopTime="0.00" timeLoss="3.19" rerouteNo="0" devices="tripinfo_NS.5 routing_NS.5" vType="DEFAULT_VEHTYPE" speedFactor="1.01" vaporized=""/>
    <tripinfo id="NW.2" depart="100.00" departLane="5_1_1" departPos="5.10" departSpeed="0.00" departDelay="0.00" arrival="141.00" arrivalLane="1_2_1" arrivalPos="186.40" arrivalSpeed="10.37" duration="41.00" routeLength="382.62" waitingTime="0.00" waitingCount="0" stopTime="0.00" timeLoss="2.97" rerouteNo="0" devices="tripinfo_NW.2 routing_NW.2" vType="DEFAULT_VEHTYPE" speedFactor="0.93" vaporized=""/>
    <personinfo id="person_NS_e.0" depart="5.50" type="DEFAULT_PEDTYPE" speedFactor="1.25" duration="140.00" waitingTime="0.00" timeLoss="13.57" traveltime="140.00">
        <walk depart="5.50" departPos="100.00" arrival="145.50" arrivalPos="94.80" duration="140.00" routeLength="219.53" timeLoss="13.57" maxSpeed="1.74"/>
    </personinfo>
    <tripinfo id="SN.4" depart="109.50" departLane="3_1_2" departPos="5.10" departSpeed="0.00" departDelay="0.41" arrival="150.50" arrivalLane="1_5_1" arrivalPos="189.60" arrivalSpeed="10.07" duration="41.00" routeLength="395.22" waitingTime="0.00" waitingCount="0" stopTime="0.00" timeLoss="1.69" rerouteNo="0" devices="tripinfo_SN.4 routing_SN.4" vType="DEFAULT_VEHTYPE" speedFactor="0.90" vaporized=""/>
    <tripinfo id="NS.6" depart="112.50" departLane="5_1_2" departPos="5.10" departSpeed="0.00" departDelay="0.00" arrival="151.50" arrivalLane="1_3_1" arrivalPos="189.60" arrivalSpeed="10.72" duration="39.00" routeLength="395.22" waitingTime="0.00" waitingCount="0" stopTime="0.00" timeLoss="2.06" rerouteNo="0" devices="tripinfo_NS.6 routing_NS.6" vType="DEFAULT_VEHTYPE" speedFactor="0.96" vaporized=""/>
    <tripinfo id="SE.2" depart="109.50" departLane="3_1_1" departPos="5.10" departSpeed="0.00" departDelay="0.41" arrival="152.50" arrivalLane="1_4_1" arrivalPos="186.40" arrivalSpeed="11.25" duration="43.00" routeLength="379.93" waitingTime="3.50" waitingCount="1" stopTime="0.00" timeLoss="8.41" rerouteNo="0" devices="tripinfo_SE.2 routing_SE.2" vType="DEFAULT_VEHTYPE" speedFactor="1.00" vaporized=""/>
    <personinfo id="person_NW_diag.0" depart="4.50" type="DEFAULT_PEDTYPE" speedFactor="0.98" duration="156.50" waitingTime="0.00" timeLoss="16.83" traveltime="156.50">
        <walk depart="4.50" departPos="100.00" arrival="161.00" arrivalPos="93.20" duration="156.50" routeLength="190.90" timeLoss="16.83" maxSpeed="1.37"/>
    </personinfo>
    <tripinfo id="WE.2" depart="100.00" departLane="2_1_1" departPos="5.10" departSpeed="0.00" departDelay="0.00" arrival="163.50" arrivalLane="1_4_1" arrivalPos="186.40" arrivalSpeed="10.66" duration="63.50" routeLength="395.13" waitingTime="20.50" waitingCount="1" stopTime="0.00" timeLoss="26.39" rerouteNo="0" devices="tripinfo_WE.2 routing_WE.2" vType="DEFAULT_VEHTYPE" speedFactor="0.95" vaporized=""/>
    <personinfo id="person_SW_diag.0" depart="30.00" type="DEFAULT_PEDTYPE" speedFactor="1.30" duration="136.00" waitingTime="0.00" timeLoss="15.15" traveltime="136.00">
        <walk depart="30.00" departPos="100.00" arrival="166.00" arrivalPos="93.20" duration="136.00" routeLength="218.17" timeLoss="15.15" maxSpeed="1.81"/>
    </personinfo>
    <tripinfo id="WS.2" depart="133.50" departLane="2_1_1" departPos="5.10" departSpeed="0.00" departDelay="0.17" arrival="171.50" arrivalLane="1_3_1" arrivalPos="189.60" arrivalSpeed="11.31" duration="38.00" routeLength="385.10" waitingTime="0.00" waitingCount="0" stopTime="0.00" timeLoss="3.39" rerouteNo="0" devices="tripinfo_WS.2 routing_WS.2" vType="DEFAULT_VEHTYPE" speedFactor="1.01" vaporized=""/>
    <personinfo id="person_NW_diag.1" depart="20.50" type="DEFAULT_PEDTYPE" speedFactor="1.00" duration="153.50" waitingTime="0.00" timeLoss="15.49" traveltime="153.50">
        <walk depart="20.50" departPos="100.00" arrival="174.00" arrivalPos="93.20" duration="153.50" routeLength="190.90" timeLoss="15.49" maxSpeed="1.38"/>
    </personinfo>
    <personinfo id="person_EW_n.1" depart="17.50" type="DEFAULT_PEDTYPE" speedFactor="1.09" duration="157.00" waitingTime="0.00" timeLoss="18.04" traveltime="157.00">
        <walk depart="17.50" departPos="100.00" arrival="174.50" arrivalPos="93.20" duration="157.00" routeLength="210.56" timeLoss="18.04" maxSpeed="1.52"/>
    </personinfo>
    <personinfo id="person_WE_s.0" depart="2.00" type="DEFAULT_PEDTYPE" speedFactor="0.98" duration="180.00" waitingTime="0.00" timeLoss="25.50" traveltime="180.00">
        <walk depart="2.00" departPos="100.00" arrival="182.00" arrivalPos="93.20" duration="180.00" routeLength="209.26" timeLoss="25.50" maxSpeed="1.35"/>
    </personinfo>
    <personinfo id="person_SE_diag.0" depart="25.50" type="DEFAULT_PEDTYPE" speedFactor="0.96" duration="157.00" waitingTime="0.00" timeLoss="16.87" traveltime="157.00">
        <walk depart="25.50" departPos="100.00" arrival="182.50" arrivalPos="93.20" duration="157.00" routeLength="187.66" timeLoss="16.87" maxSpeed="1.34"/>
    </personinfo>
    <tripinfo id="EN.1" depart="150.00" departLane="4_1_1" departPos="5.10" departSpeed="0.00" departDelay="0.00" arrival="184.50" arrivalLane="1_5_1" arrivalPos="189.60" arrivalSpeed="13.09" duration="34.50" routeLength="382.62" waitingTime="0.00" waitingCount="0" stopTime="0.00" timeLoss="4.92" rerouteNo="0" devices="tripinfo_EN.1 routing_EN.1" vType="DEFAULT_VEHTYPE" speedFactor="1.18" vaporized=""/>
    <tripinfo id="WE.3" depart="150.00" departLane="2_1_1" departPos="5.10" departSpeed="0.00" departDelay="0.00" arrival="186.00" arrivalLane="1_4_1" arrivalPos="186.40" arrivalSpeed="13.00" duration="36.00" routeLength="395.13" waitingTime="0.00" waitingCount="0" stopTime="0.00" timeLoss="5.42" rerouteNo="0" devices="tripinfo_WE.3 routing_WE.3" vType="DEFAULT_VEHTYPE" speedFactor="1.17" vaporized=""/>
    <personinfo id="person_SN_w.0" depart="3.00" type="DEFAULT_PEDTYPE" speedFactor="1.00" duration="183.50" waitingTime="0.00" timeLoss="26.98" traveltime="183.50">
        <walk depart="3.00" departPos="100.00" arrival="186.50" arrivalPos="94.80" duration="183.50" routeLength="217.89" timeLoss="26.98" maxSpeed="1.39"/>
    </personinfo>
    <tripinfo id="EW.1" depart="150.00" departLane="4_1_2" departPos="5.10" departSpeed="0.00" departDelay="0.00" arrival="192.00" arrivalLane="1_2_1" arrivalPos="186.40" arrivalSpeed="9.97" duration="42.00" routeLength="394.90" waitingTime="0.00" waitingCount="0" stopTime="0.00" timeLoss="2.00" rerouteNo="0" devices="tripinfo_EW.1 routing_EW.1" vType="DEFAULT_VEHTYPE" speedFactor="0.89" vaporized=""/>
    <personinfo id="person_SE_diag.1" depart="44.00" type="DEFAULT_PEDTYPE" speedFactor="1.00" duration="151.50" waitingTime="0.00" timeLoss="15.87" traveltime="151.50">
        <walk depart="44.00" departPos="100.00" arrival="195.50" arrivalPos="93.20" duration="151.50" routeLength="187.66" timeLoss="15.87" maxSpeed="1.38"/>
    </personinfo>
    <personinfo id="person_NW_diag.2" depart="32.00" type="DEFAULT_PEDTYPE" speedFactor="0.92" duration="166.50" waitingTime="0.00" timeLoss="17.50" traveltime="166.50">
        <walk depart="32.00" departPos="100.00" arrival="198.50" arrivalPos="93.20" duration="166.50" routeLength="190.90" timeLoss="17.50" maxSpeed="1.28"/>
    </personinfo>
    <tripinfo id="NS.7" depart="131.50" departLane="5_1_2" departPos="5.10" departSpeed="0.00" departDelay="0.25" arrival="199.00" arrivalLane="1_3_1" arrivalPos="189.60" arrivalSpeed="11.45" duration="67.50" routeLength="395.22" waitingTime="24.50" waitingCount="1" stopTime="0.00" timeLoss="32.93" rerouteNo="0" devices="tripinfo_NS.7 routing_NS.7" vType="DEFAULT_VEHTYPE" speedFactor="1.02" vaporized=""/>
    <tripinfo id="NS.8" depart="150.00" departLane="5_1_2" departPos="5.10" departSpeed="0.00" departDelay="0.00" arrival="199.00" arrivalLane="1_3_2" arrivalPos="189.60" arrivalSpeed="11.45" duration="49.00" routeLength="395.22" waitingTime="5.00" waitingCount="1" stopTime="0.00" timeLoss="14.43" rerouteNo="0" devices="tripinfo_NS.8 routing_NS.8" vType="DEFAULT_VEHTYPE" speedFactor="1.02" vaporized=""/>
    <personinfo id="person_NW_diag.3" depart="56.00" type="DEFAULT_PEDTYPE" speedFactor="1.06" duration="144.00" waitingTime="0.00" timeLoss="14.87" traveltime="144.00">
        <walk depart="56.00" departPos="100.00" arrival="200.00" arrivalPos="93.20" duration="144.00" routeLength="190.90" timeLoss="14.87" maxSpeed="1.48"/>
    </personinfo>
    <personinfo id="person_NS_e.2" depart="45.50" type="DEFAULT_PEDTYPE" speedFactor="1.13" duration="157.00" waitingTime="0.00" timeLoss="16.81" traveltime="157.00">
        <walk depart="45.50" departPos="100.00" arrival="202.50" arrivalPos="94.80" duration="157.00" routeLength="219.53" timeLoss="16.81" maxSpeed="1.57"/>
    </personinfo>
    <tripinfo id="NE.1" depart="150.00" departLane="5_1_3" departPos="5.10" departSpeed="0.00" departDelay="0.00" arrival="203.00" arrivalLane="1_4_2" arrivalPos="186.40" arrivalSpeed="13.00" duration="53.00" routeLength="392.89" waitingTime="8.00" waitingCount="2" stopTime="0.00" timeLoss="22.48" rerouteNo="0" devices="tripinfo_NE.1 routing_NE.1" vType="DEFAULT_VEHTYPE" speedFactor="1.16" vaporized=""/>
    <tripinfo id="NW.3" depart="150.00" departLane="5_1_1" departPos="5.10" departSpeed="0.00" departDelay="0.00" arrival="203.00" arrivalLane="1_2_1" arrivalPos="186.40" arrivalSpeed="10.80" duration="53.00" routeLength="382.62" waitingTime="4.50" waitingCount="1" stopTime="0.00" timeLoss="16.63" rerouteNo="0" devices="tripinfo_NW.3 routing_NW.3" vType="DEFAULT_VEHTYPE" speedFactor="0.96" vaporized=""/>
    <personinfo id="person_SN_e.0" depart="43.00" type="DEFAULT_PEDTYPE" speedFactor="1.03" duration="162.50" waitingTime="0.00" timeLoss="16.31" traveltime="162.50">
        <walk depart="43.00" departPos="100.00" arrival="205.50" arrivalPos="94.80" duration="162.50" routeLength="209.13" timeLoss="16.31" maxSpeed="1.43"/>
    </personinfo>
    <personinfo id="person_NW_diag.4" depart="67.00" type="DEFAULT_PEDTYPE" speedFactor="1.09" duration="140.00" waitingTime="0.00" timeLoss="14.13" traveltime="140.00">
        <walk depart="67.00" departPos="100.00" arrival="207.00" arrivalPos="93.20" duration="140.00" routeLength="190.90" timeLoss="14.13" maxSpeed="1.52"/>
    </personinfo>
    <tripinfo id="NS.9" depart="169.00" departLane="5_1_2" departPos="5.10" departSpeed="0.00" departDelay="0.25" arrival="211.50" arrivalLane="1_3_1" arrivalPos="189.60" arrivalSpeed="11.19" duration="42.50" routeLength="395.22" waitingTime="0.50" waitingCount="1" stopTime="0.00" timeLoss="7.02" rerouteNo="0" devices="tripinfo_NS.9 routing_NS.9" vType="DEFAULT_VEHTYPE" speedFactor="1.00" vaporized=""/>
    <tripinfo id="SN.5" depart="136.50" departLane="3_1_1" departPos="5.10" departSpeed="0.00" departDelay="0.14" arrival="212.50" arrivalLane="1_5_1" arrivalPos="189.60" arrivalSpeed="10.47" duration="76.00" routeLength="395.22" waitingTime="32.00" waitingCount="1" stopTime="0.00" timeLoss="38.24" rerouteNo="0" devices="tripinfo_SN.5 routing_SN.5" vType="DEFAULT_VEHTYPE" speedFactor="0.93" vaporized=""/>
    <tripinfo id="SN.6" depart="164.00" departLane="3_1_2" departPos="5.10" departSpeed="0.00" departDelay="0.36" arrival="214.00" arrivalLane="1_5_2" arrivalPos="189.60" arrivalSpeed="9.67" duration="50.00" routeLength="395.22" waitingTime="3.00" waitingCount="1" stopTime="0.00" timeLoss="9.15" rerouteNo="0" devices="tripinfo_SN.6 routing_SN.6" vType="DEFAULT_VEHTYPE" speedFactor="0.86" vaporized=""/>
    <personinfo id="person_WE_s.2" depart="51.50" type="DEFAULT_PEDTYPE" speedFactor="1.20" duration="165.50" waitingTime="0.00" timeLoss="39.99" traveltime="165.50">
        <walk depart="51.50" departPos="100.00" arrival="217.00" arrivalPos="93.20" duration="165.50" routeLength="209.26" timeLoss="39.99" maxSpeed="1.67"/>
    </personinfo>
    <personinfo id="person_NS_e.1" depart="28.50" type="DEFAULT_PEDTYPE" speedFactor="0.91" duration="192.00" waitingTime="0.00" timeLoss="19.14" traveltime="192.00">
        <walk depart="28.50" departPos="100.00" arrival="220.50" arrivalPos="94.80" duration="192.00" routeLength="219.53" timeLoss="19.14" maxSpeed="1.27"/>
    </personinfo>
    <personinfo id="person_WE_s.1" depart="43.50" type="DEFAULT_PEDTYPE" speedFactor="1.08" duration="182.00" waitingTime="0.00" timeLoss="42.84" traveltime="182.00">
        <walk depart="43.50" departPos="100.00" arrival="225.50" arrivalPos="93.20" duration="182.00" routeLength="209.26" timeLoss="42.84" maxSpeed="1.50"/>
    </personinfo>
    <personinfo id="person_NW_diag.5" depart="88.00" type="DEFAULT_PEDTYPE" speedFactor="1.11" duration="138.00" waitingTime="0.00" timeLoss="14.14" traveltime="138.00">
        <walk depart="88.00" departPos="100.00" arrival="226.00" arrivalPos="93.20" duration="138.00" routeLength="190.90" timeLoss="14.14" maxSpeed="1.54"/>
    </personinfo>
    <personinfo id="person_WE_n.1" depart="31.50" type="DEFAULT_PEDTYPE" speedFactor="1.12" duration="195.00" waitingTime="0.00" timeLoss="50.81" traveltime="195.00">
        <walk depart="31.50" departPos="100.00" arrival="226.50" arrivalPos="93.20" duration="195.00" routeLength="224.16" timeLoss="50.81" maxSpeed="1.55"/>
    </personinfo>
    <tripinfo id="NS.10" depart="187.50" departLane="5_1_2" departPos="5.10" departSpeed="0.00" departDelay="0.00" arrival="227.50" arrivalLane="1_3_1" arrivalPos="189.60" arrivalSpeed="10.64" duration="40.00" routeLength="395.22" waitingTime="0.00" waitingCount="0" stopTime="0.00" timeLoss="2.76" rerouteNo="0" devices="tripinfo_NS.10 routing_NS.10" vType="DEFAULT_VEHTYPE" speedFactor="0.95" vaporized=""/>
    <personinfo id="person_NE_diag.1" depart="28.50" type="DEFAULT_PEDTYPE" speedFactor="1.02" duration="202.00" waitingTime="0.00" timeLoss="46.82" traveltime="202.00">
        <walk depart="28.50" departPos="100.00" arrival="230.50" arrivalPos="93.20" duration="202.00" routeLength="220.38" timeLoss="46.82" maxSpeed="1.42"/>
    </personinfo>
    <tripinfo id="SN.7" depart="191.00" departLane="3_1_2" departPos="5.10" departSpeed="0.00" departDelay="0.09" arrival="230.50" arrivalLane="1_5_1" arrivalPos="189.60" arrivalSpeed="10.86" duration="39.50" routeLength="395.22" waitingTime="0.00" waitingCount="0" stopTime="0.00" timeLoss="3.42" rerouteNo="0" devices="tripinfo_SN.7 routing_SN.7" vType="DEFAULT_VEHTYPE" speedFactor="0.98" vaporized=""/>
    <personinfo id="person_WE_s.3" depart="62.00" type="DEFAULT_PEDTYPE" speedFactor="1.05" duration="169.00" waitingTime="0.00" timeLoss="24.93" traveltime="169.00">
        <walk depart="62.00" departPos="100.00" arrival="231.00" arrivalPos="93.20" duration="169.00" routeLength="209.26" timeLoss="24.93" maxSpeed="1.45"/>
    </personinfo>
    <tripinfo id="SE.3" depart="164.00" departLane="3_1_1" departPos="5.10" departSpeed="0.00" departDelay="0.37" arrival="231.50" arrivalLane="1_4_1" arrivalPos="186.40" arrivalSpeed="12.39" duration="67.50" routeLength="379.93" waitingTime="19.00" waitingCount="3" stopTime="0.00" timeLoss="35.82" rerouteNo="0" devices="tripinfo_SE.3 routing_SE.3" vType="DEFAULT_VEHTYPE" speedFactor="1.11" vaporized=""/>
    <personinfo id="person_EW_n.4" depart="85.50" type="DEFAULT_PEDTYPE" speedFactor="1.14" duration="147.50" waitingTime="0.00" timeLoss="14.76" traveltime="147.50">
        <walk depart="85.50" departPos="100.00" arrival="233.00" arrivalPos="93.20" duration="147.50" routeLength="210.56" timeLoss="14.76" maxSpeed="1.59"/>
    </personinfo>
    <personinfo id="person_WE_n.0" depart="10.00" type="DEFAULT_PEDTYPE" speedFactor="1.00" duration="226.00" waitingTime="0.00" timeLoss="64.12" traveltime="226.00">
        <walk depart="10.00" departPos="100.00" arrival="236.00" arrivalPos="93.20" duration="226.00" routeLength="224.16" timeLoss="64.12" maxSpeed="1.38"/>
    </personinfo>
    <personinfo id="person_WE_n.3" depart="37.00" type="DEFAULT_PEDTYPE" speedFactor="0.99" duration="201.50" waitingTime="0.00" timeLoss="37.98" traveltime="201.50">
        <walk depart="37.00" departPos="100.00" arrival="238.50" arrivalPos="93.20" duration="201.50" routeLength="224.16" timeLoss="37.98" maxSpeed="1.37"/>
    </personinfo>
    <personinfo id="person_WE_n.2" depart="31.50" type="DEFAULT_PEDTYPE" speedFactor="1.00" duration="207.50" waitingTime="0.00" timeLoss="45.77" traveltime="207.50">
        <walk depart="31.50" departPos="100.00" arrival="239.00" arrivalPos="93.20" duration="207.50" routeLength="224.16" timeLoss="45.77" maxSpeed="1.39"/>
    </personinfo>
    <personinfo id="person_EW_n.0" depart="14.50" type="DEFAULT_PEDTYPE" speedFactor="0.95" duration="225.00" waitingTime="0.00" timeLoss="65.59" traveltime="225.00">
        <walk depart="14.50" departPos="100.00" arrival="239.50" arrivalPos="93.20" duration="225.00" routeLength="210.56" timeLoss="65.59" maxSpeed="1.32"/>
    </personinfo>
    <tripinfo id="NS.11" depart="206.50" departLane="5_1_2" departPos="5.10" departSpeed="0.00" departDelay="0.25" arrival="242.00" arrivalLane="1_3_1" arrivalPos="189.60" arrivalSpeed="12.70" duration="35.50" routeLength="395.22" waitingTime="0.00" waitingCount="0" stopTime="0.00" timeLoss="4.27" rerouteNo="0" devices="tripinfo_NS.11 routing_NS.11" vType="DEFAULT_VEHTYPE" speedFactor="1.13" vaporized=""/>
    <personinfo id="person_NW_diag.9" depart="107.50" type="DEFAULT_PEDTYPE" speedFactor="1.15" duration="135.50" waitingTime="0.00" timeLoss="16.18" traveltime="135.50">
        <walk depart="107.50" departPos="100.00" arrival="243.00" arrivalPos="93.20" duration="135.50" routeLength="190.90" timeLoss="16.18" maxSpeed="1.60"/>
    </personinfo>
    <personinfo id="person_NE_diag.0" depart="11.50" type="DEFAULT_PEDTYPE" speedFactor="0.89" duration="232.50" waitingTime="0.00" timeLoss="54.01" traveltime="232.50">
        <walk depart="11.50" departPos="100.00" arrival="244.00" arrivalPos="93.20" duration="232.50" routeLength="220.66" timeLoss="54.01" maxSpeed="1.24"/>
    </personinfo>
    <personinfo id="person_NW_diag.7" depart="94.00" type="DEFAULT_PEDTYPE" speedFactor="1.04" duration="150.50" waitingTime="0.00" timeLoss="18.41" traveltime="150.50">
        <walk depart="94.00" departPos="100.00" arrival="244.50" arrivalPos="93.20" duration="150.50" routeLength="190.90" timeLoss="18.41" maxSpeed="1.45"/>
    </personinfo>
    <personinfo id="person_EW_n.3" depart="50.50" type="DEFAULT_PEDTYPE" speedFactor="0.91" duration="194.50" waitingTime="0.00" timeLoss="27.26" traveltime="194.50">
        <walk depart="50.50" departPos="100.00" arrival="245.00" arrivalPos="93.20" duration="194.50" routeLength="210.56" timeLoss="27.26" maxSpeed="1.26"/>
    </personinfo>