<?xml version="1.0" encoding="UTF-8"?>

<!-- generated on 2025-03-17 18:27:13 by Eclipse SUMO GUI Version 1.22.0
<sumoConfiguration xmlns:xsi="http://www.w3.org/2001/XMLSchema-instance" xsi:noNamespaceSchemaLocation="http://sumo.dlr.de/xsd/sumoConfiguration.xsd">

    <input>
        <net-file value="C:\Users\chris\PycharmProjects\UW_CET593_project2\environment/network_model/UW_intersection_pedestrian_X.net.xml"/>
        <route-files value="C:\Users\chris\PycharmProjects\UW_CET593_project2\environment/network_model/UW_IntersectionDecreaseDemand.rou.xml"/>
        <additional-files value="C:\Users\chris\PycharmProjects\UW_CET593_project2\environment/network_model/UW_intersection_Concurrent.add.xml"/>
    </input>

    <output>
        <queue-output value="C:\Users\chris\PycharmProjects\UW_CET593_project2\environment/simulation_data/UW_intersection/queues_multi_scale_symmetric_pene_20.xml"/>
        <tripinfo-output value="C:\Users\chris\PycharmProjects\UW_CET593_project2\environment/simulation_data/UW_intersection/tripinfo_multi_scale_symmetric_pene_20.xml"/>
    </output>

    <time>
        <begin value="0"/>
        <step-length value="0.5"/>
    </time>

    <processing>
        <waiting-time-memory value="1000"/>
    </processing>

    <report>
        <verbose value="true"/>
        <no-step-log value="true"/>
    </report>

    <traci_server>
        <remote-port value="62352"/>
    </traci_server>

    <gui_only>
        <start value="true"/>
    </gui_only>

</sumoConfiguration>
-->

<tripinfos xmlns:xsi="http://www.w3.org/2001/XMLSchema-instance" xsi:noNamespaceSchemaLocation="http://sumo.dlr.de/xsd/tripinfo_file.xsd">
    <tripinfo id="NS.0" depart="0.00" departLane="5_1_1" departPos="5.10" departSpeed="0.00" departDelay="0.00" arrival="35.50" arrivalLane="1_3_1" arrivalPos="189.60" arrivalSpeed="12.12" duration="35.50" routeLength="395.22" waitingTime="0.00" waitingCount="0" stopTime="0.00" timeLoss="3.63" rerouteNo="0" devices="tripinfo_NS.0 routing_NS.0" vType="DEFAULT_VEHTYPE" speedFactor="1.11" vaporized=""/>
    <tripinfo id="SN.0" depart="0.00" departLane="3_1_2" departPos="5.10" departSpeed="0.00" departDelay="0.00" arrival="38.00" arrivalLane="1_5_1" arrivalPos="189.60" arrivalSpeed="11.12" duration="38.00" routeLength="395.22" waitingTime="0.00" waitingCount="0" stopTime="0.00" timeLoss="3.64" rerouteNo="0" devices="tripinfo_SN.0 routing_SN.0" vType="DEFAULT_VEHTYPE" speedFactor="1.04" vaporized=""/>
    <tripinfo id="SE.0" depart="0.00" departLane="3_1_1" departPos="5.10" departSpeed="0.00" departDelay="0.00" arrival="39.00" arrivalLane="1_4_1" arrivalPos="186.40" arrivalSpeed="11.11" duration="39.00" routeLength="379.93" waitingTime="0.00" waitingCount="0" stopTime="0.00" timeLoss="4.24" rerouteNo="0" devices="tripinfo_SE.0 routing_SE.0" vType="DEFAULT_VEHTYPE" speedFactor="0.99" vaporized=""/>
    <tripinfo id="EN.0" depart="0.00" departLane="4_1_1" departPos="5.10" departSpeed="0.00" departDelay="0.00" arrival="46.00" arrivalLane="1_5_1" arrivalPos="189.60" arrivalSpeed="11.92" duration="46.00" routeLength="382.62" waitingTime="4.00" waitingCount="1" stopTime="0.00" timeLoss="13.13" rerouteNo="0" devices="tripinfo_EN.0 routing_EN.0" vType="DEFAULT_VEHTYPE" speedFactor="1.06" vaporized=""/>
    <tripinfo id="WN.0" depart="2.50" departLane="2_1_1" departPos="5.10" departSpeed="0.00" departDelay="2.50" arrival="48.50" arrivalLane="1_5_2" arrivalPos="189.60" arrivalSpeed="12.78" duration="46.00" routeLength="392.90" waitingTime="3.00" waitingCount="1" stopTime="0.00" timeLoss="15.21" rerouteNo="0" devices="tripinfo_WN.0 routing_WN.0" vType="DEFAULT_VEHTYPE" speedFactor="1.15" vaporized=""/>
    <tripinfo id="WE.0" depart="0.00" departLane="2_1_1" departPos="5.10" departSpeed="0.00" departDelay="0.00" arrival="49.50" arrivalLane="1_4_1" arrivalPos="186.40" arrivalSpeed="10.30" duration="49.50" routeLength="395.13" waitingTime="6.00" waitingCount="1" stopTime="0.00" timeLoss="12.99" rerouteNo="0" devices="tripinfo_WE.0 routing_WE.0" vType="DEFAULT_VEHTYPE" speedFactor="0.97" vaporized=""/>
    <tripinfo id="ES.0" depart="0.00" departLane="4_1_2" departPos="5.10" departSpeed="0.00" departDelay="0.00" arrival="53.00" arrivalLane="1_3_2" arrivalPos="189.60" arrivalSpeed="11.11" duration="53.00" routeLength="392.89" waitingTime="8.00" waitingCount="2" stopTime="0.00" timeLoss="18.10" rerouteNo="0" devices="tripinfo_ES.0 routing_ES.0" vType="DEFAULT_VEHTYPE" speedFactor="1.02" vaporized=""/>
    <tripinfo id="WS.0" depart="5.00" departLane="2_1_1" departPos="5.10" departSpeed="0.00" departDelay="5.00" arrival="54.00" arrivalLane="1_3_1" arrivalPos="189.60" arrivalSpeed="10.05" duration="49.00" routeLength="385.10" waitingTime="0.00" waitingCount="0" stopTime="0.00" timeLoss="10.60" rerouteNo="0" devices="tripinfo_WS.0 routing_WS.0" vType="DEFAULT_VEHTYPE" speedFactor="0.91" vaporized=""/>
    <tripinfo id="EW.0" depart="3.00" departLane="4_1_2" departPos="5.10" departSpeed="0.00" departDelay="3.00" arrival="55.50" arrivalLane="1_2_1" arrivalPos="186.40" arrivalSpeed="10.68" duration="52.50" routeLength="394.90" waitingTime="3.00" waitingCount="2" stopTime="0.00" timeLoss="15.90" rerouteNo="0" devices="tripinfo_EW.0 routing_EW.0" vType="DEFAULT_VEHTYPE" speedFactor="0.97" vaporized=""/>
    <tripinfo id="NE.0" depart="0.00" departLane="5_1_3" departPos="5.10" departSpeed="0.00" departDelay="0.00" arrival="63.00" arrivalLane="1_4_2" arrivalPos="186.40" arrivalSpeed="13.00" duration="63.00" routeLength="392.89" waitingTime="23.00" waitingCount="1" stopTime="0.00" timeLoss="34.26" rerouteNo="0" devices="tripinfo_NE.0 routing_NE.0" vType="DEFAULT_VEHTYPE" speedFactor="1.24" vaporized=""/>
    <tripinfo id="NS.1" depart="23.50" departLane="5_1_2" departPos="5.10" departSpeed="0.00" departDelay="0.06" arrival="65.00" arrivalLane="1_3_1" arrivalPos="189.60" arrivalSpeed="10.29" duration="41.50" routeLength="395.22" waitingTime="0.00" waitingCount="0" stopTime="0.00" timeLoss="4.25" rerouteNo="0" devices="tripinfo_NS.1 routing_NS.1" vType="DEFAULT_VEHTYPE" speedFactor="0.96" vaporized=""/>
    <tripinfo id="NW.0" depart="3.00" departLane="5_1_1" departPos="5.10" departSpeed="0.00" departDelay="3.00" arrival="72.00" arrivalLane="1_2_1" arrivalPos="186.40" arrivalSpeed="12.23" duration="69.00" routeLength="382.62" waitingTime="24.00" waitingCount="2" stopTime="0.00" timeLoss="36.77" rerouteNo="0" devices="tripinfo_NW.0 routing_NW.0" vType="DEFAULT_VEHTYPE" speedFactor="1.09" vaporized=""/>
    <tripinfo id="SW.0" depart="0.00" departLane="3_1_3" departPos="5.10" departSpeed="0.00" departDelay="0.00" arrival="74.00" arrivalLane="1_2_1" arrivalPos="186.40" arrivalSpeed="12.66" duration="74.00" routeLength="392.89" waitingTime="31.00" waitingCount="2" stopTime="0.00" timeLoss="42.90" rerouteNo="0" devices="tripinfo_SW.0 routing_SW.0" vType="DEFAULT_VEHTYPE" speedFactor="1.14" vaporized=""/>
    <tripinfo id="SN.1" depart="34.50" departLane="3_1_1" departPos="5.10" departSpeed="0.00" departDelay="0.41" arrival="81.00" arrivalLane="1_5_1" arrivalPos="189.60" arrivalSpeed="11.66" duration="46.50" routeLength="395.22" waitingTime="5.50" waitingCount="1" stopTime="0.00" timeLoss="12.26" rerouteNo="0" devices="tripinfo_SN.1 routing_SN.1" vType="DEFAULT_VEHTYPE" speedFactor="1.04" vaporized=""/>
    <tripinfo id="NS.2" depart="47.00" departLane="5_1_1" departPos="5.10" departSpeed="0.00" departDelay="0.12" arrival="91.00" arrivalLane="1_3_1" arrivalPos="189.60" arrivalSpeed="9.30" duration="44.00" routeLength="395.22" waitingTime="0.00" waitingCount="0" stopTime="0.00" timeLoss="3.69" rerouteNo="0" devices="tripinfo_NS.2 routing_NS.2" vType="DEFAULT_VEHTYPE" speedFactor="0.88" vaporized=""/>
    <tripinfo id="NW.1" depart="62.50" departLane="5_1_1" departPos="5.10" departSpeed="0.00" departDelay="0.00" arrival="99.00" arrivalLane="1_2_1" arrivalPos="186.40" arrivalSpeed="11.70" duration="36.50" routeLength="382.62" waitingTime="0.00" waitingCount="0" stopTime="0.00" timeLoss="4.82" rerouteNo="0" devices="tripinfo_NW.1 routing_NW.1" vType="DEFAULT_VEHTYPE" speedFactor="1.10" vaporized=""/>
    <tripinfo id="SE.1" depart="68.50" departLane="3_1_1" departPos="5.10" departSpeed="0.00" departDelay="0.32" arrival="110.50" arrivalLane="1_4_1" arrivalPos="186.40" arrivalSpeed="10.37" duration="42.00" routeLength="379.93" waitingTime="0.00" waitingCount="0" stopTime="0.00" timeLoss="5.40" rerouteNo="0" devices="tripinfo_SE.1 routing_SE.1" vType="DEFAULT_VEHTYPE" speedFactor="0.95" vaporized=""/>
    <tripinfo id="NS.3" depart="70.50" departLane="5_1_2" departPos="5.10" departSpeed="0.00" departDelay="0.19" arrival="110.50" arrivalLane="1_3_1" arrivalPos="189.60" arrivalSpeed="10.29" duration="40.00" routeLength="395.22" waitingTime="0.00" waitingCount="0" stopTime="0.00" timeLoss="3.52" rerouteNo="0" devices="tripinfo_NS.3 routing_NS.3" vType="DEFAULT_VEHTYPE" speedFactor="0.97" vaporized=""/>
    <tripinfo id="SN.2" depart="68.50" departLane="3_1_2" departPos="5.10" departSpeed="0.00" departDelay="0.32" arrival="111.50" arrivalLane="1_5_1" arrivalPos="189.60" arrivalSpeed="10.92" duration="43.00" routeLength="395.22" waitingTime="1.00" waitingCount="1" stopTime="0.00" timeLoss="7.91" rerouteNo="0" devices="tripinfo_SN.2 routing_SN.2" vType="DEFAULT_VEHTYPE" speedFactor="1.01" vaporized=""/>
    <tripinfo id="NS.4" depart="94.00" departLane="5_1_1" departPos="5.10" departSpeed="0.00" departDelay="0.25" arrival="132.50" arrivalLane="1_3_1" arrivalPos="189.60" arrivalSpeed="11.32" duration="38.50" routeLength="395.22" waitingTime="0.00" waitingCount="0" stopTime="0.00" timeLoss="3.75" rerouteNo="0" devices="tripinfo_NS.4 routing_NS.4" vType="DEFAULT_VEHTYPE" speedFactor="1.02" vaporized=""/>
    <tripinfo id="SN.3" depart="102.50" departLane="3_1_1" departPos="5.10" departSpeed="0.00" departDelay="0.23" arrival="141.50" arrivalLane="1_5_1" arrivalPos="189.60" arrivalSpeed="10.79" duration="39.00" routeLength="395.22" waitingTime="0.00" waitingCount="0" stopTime="0.00" timeLoss="3.88" rerouteNo="0" devices="tripinfo_SN.3 routing_SN.3" vType="DEFAULT_VEHTYPE" speedFactor="1.01" vaporized=""/>
    <tripinfo id="NS.5" depart="117.50" departLane="5_1_1" departPos="5.10" departSpeed="0.00" departDelay="0.31" arrival="157.50" arrivalLane="1_3_1" arrivalPos="189.60" arrivalSpeed="10.50" duration="40.00" routeLength="395.22" waitingTime="0.00" waitingCount="0" stopTime="0.00" timeLoss="3.50" rerouteNo="0" devices="tripinfo_NS.5 routing_NS.5" vType="DEFAULT_VEHTYPE" speedFactor="0.97" vaporized=""/>
    <tripinfo id="NW.2" depart="125.00" departLane="5_1_1" departPos="5.10" departSpeed="0.00" departDelay="0.00" arrival="163.00" arrivalLane="1_2_1" arrivalPos="186.40" arrivalSpeed="11.40" duration="38.00" routeLength="382.62" waitingTime="0.00" waitingCount="0" stopTime="0.00" timeLoss="4.39" rerouteNo="0" devices="tripinfo_NW.2 routing_NW.2" vType="DEFAULT_VEHTYPE" speedFactor="1.04" vaporized=""/>
    <personinfo id="person_SE_diag.0" depart="2.00" type="DEFAULT_PEDTYPE" speedFactor="0.90" duration="167.00" waitingTime="0.00" timeLoss="17.12" traveltime="167.00">
        <walk depart="2.00" departPos="100.00" arrival="169.00" arrivalPos="93.20" duration="167.00" routeLength="187.66" timeLoss="17.12" maxSpeed="1.25"/>
    </personinfo>
    <tripinfo id="WE.1" depart="62.50" departLane="2_1_1" departPos="5.10" departSpeed="0.00" departDelay="0.00" arrival="174.00" arrivalLane="1_4_1" arrivalPos="186.40" arrivalSpeed="12.51" duration="111.50" routeLength="395.13" waitingTime="72.00" waitingCount="1" stopTime="0.00" timeLoss="79.82" rerouteNo="0" devices="tripinfo_WE.1 routing_WE.1" vType="DEFAULT_VEHTYPE" speedFactor="1.13" vaporized=""/>
    <tripinfo id="WS.1" depart="83.50" departLane="2_1_1" departPos="5.10" departSpeed="0.00" departDelay="0.17" arrival="188.00" arrivalLane="1_3_1" arrivalPos="189.60" arrivalSpeed="10.51" duration="104.50" routeLength="385.10" waitingTime="56.00" waitingCount="2" stopTime="0.00" timeLoss="68.97" rerouteNo="0" devices="tripinfo_WS.1 routing_WS.1" vType="DEFAULT_VEHTYPE" speedFactor="0.99" vaporized=""/>
    <tripinfo id="SE.2" depart="136.50" departLane="3_1_1" departPos="5.10" departSpeed="0.00" departDelay="0.14" arrival="189.00" arrivalLane="1_4_1" arrivalPos="186.40" arrivalSpeed="12.45" duration="52.50" routeLength="379.93" waitingTime="9.50" waitingCount="1" stopTime="0.00" timeLoss="20.98" rerouteNo="0" devices="tripinfo_SE.2 routing_SE.2" vType="DEFAULT_VEHTYPE" speedFactor="1.11" vaporized=""/>
    <tripinfo id="WE.2" depart="125.00" departLane="2_1_1" departPos="5.10" departSpeed="0.00" departDelay="0.00" arrival="193.50" arrivalLane="1_4_1" arrivalPos="186.40" arrivalSpeed="12.30" duration="68.50" routeLength="395.13" waitingTime="17.50" waitingCount="3" stopTime="0.00" timeLoss="37.44" rerouteNo="0" devices="tripinfo_WE.2 routing_WE.2" vType="DEFAULT_VEHTYPE" speedFactor="1.14" vaporized=""/>
    <tripinfo id="SN.4" depart="136.50" departLane="3_1_2" departPos="5.10" departSpeed="0.00" departDelay="0.14" arrival="194.50" arrivalLane="1_5_1" arrivalPos="189.60" arrivalSpeed="10.09" duration="58.00" routeLength="395.22" waitingTime="12.00" waitingCount="1" stopTime="0.00" timeLoss="19.74" rerouteNo="0" devices="tripinfo_SN.4 routing_SN.4" vType="DEFAULT_VEHTYPE" speedFactor="0.93" vaporized=""/>
    <tripinfo id="NS.6" depart="141.00" departLane="5_1_2" departPos="5.10" departSpeed="0.00" departDelay="0.37" arrival="197.50" arrivalLane="1_3_1" arrivalPos="189.60" arrivalSpeed="9.83" duration="56.50" routeLength="395.22" waitingTime="5.50" waitingCount="2" stopTime="0.00" timeLoss="16.02" rerouteNo="0" devices="tripinfo_NS.6 routing_NS.6" vType="DEFAULT_VEHTYPE" speedFactor="0.88" vaporized=""/>
    <tripinfo id="NS.7" depart="164.50" departLane="5_1_2" departPos="5.10" departSpeed="0.00" departDelay="0.43" arrival="204.00" arrivalLane="1_3_1" arrivalPos="189.60" arrivalSpeed="10.69" duration="39.50" routeLength="395.22" waitingTime="0.00" waitingCount="0" stopTime="0.00" timeLoss="3.73" rerouteNo="0" devices="tripinfo_NS.7 routing_NS.7" vType="DEFAULT_VEHTYPE" speedFactor="0.99" vaporized=""/>
    <personinfo id="person_NS_e.0" depart="12.50" type="DEFAULT_PEDTYPE" speedFactor="0.96" duration="202.50" waitingTime="0.00" timeLoss="37.11" traveltime="202.50">
        <walk depart="12.50" departPos="100.00" arrival="215.00" arrivalPos="94.80" duration="202.50" routeLength="219.53" timeLoss="37.11" maxSpeed="1.33"/>
    </personinfo>
    <personinfo id="person_SE_diag.1" depart="66.50" type="DEFAULT_PEDTYPE" speedFactor="1.00" duration="151.00" waitingTime="0.00" timeLoss="15.73" traveltime="151.00">
        <walk depart="66.50" departPos="100.00" arrival="217.50" arrivalPos="93.20" duration="151.00" routeLength="187.66" timeLoss="15.73" maxSpeed="1.39"/>
    </personinfo>
    <tripinfo id="NE.1" depart="187.50" departLane="5_1_3" departPos="5.10" departSpeed="0.00" departDelay="0.00" arrival="220.50" arrivalLane="1_4_2" arrivalPos="186.40" arrivalSpeed="14.40" duration="33.00" routeLength="392.89" waitingTime="0.00" waitingCount="0" stopTime="0.00" timeLoss="5.66" rerouteNo="0" devices="tripinfo_NE.1 routing_NE.1" vType="DEFAULT_VEHTYPE" speedFactor="1.30" vaporized=""/>
    <personinfo id="person_NW_diag.0" depart="58.50" type="DEFAULT_PEDTYPE" speedFactor="0.93" duration="165.00" waitingTime="0.00" timeLoss="16.95" traveltime="165.00">
        <walk depart="58.50" departPos="100.00" arrival="223.50" arrivalPos="93.20" duration="165.00" routeLength="190.90" timeLoss="16.95" maxSpeed="1.29"/>
    </personinfo>
    <tripinfo id="NW.3" depart="187.50" departLane="5_1_1" departPos="5.10" departSpeed="0.00" departDelay="0.00" arrival="226.50" arrivalLane="1_2_1" arrivalPos="186.40" arrivalSpeed="10.83" duration="39.00" routeLength="382.62" waitingTime="0.00" waitingCount="0" stopTime="0.00" timeLoss="4.54" rerouteNo="0" devices="tripinfo_NW.3 routing_NW.3" vType="DEFAULT_VEHTYPE" speedFactor="1.01" vaporized=""/>
    <personinfo id="person_WE_s.2" depart="64.50" type="DEFAULT_PEDTYPE" speedFactor="1.20" duration="165.00" waitingTime="0.00" timeLoss="39.49" traveltime="165.00">
        <walk depart="64.50" departPos="100.00" arrival="229.50" arrivalPos="93.20" duration="165.00" routeLength="209.26" timeLoss="39.49" maxSpeed="1.67"/>
    </personinfo>
    <personinfo id="person_EW_n.0" depart="15.50" type="DEFAULT_PEDTYPE" speedFactor="1.17" duration="218.00" waitingTime="0.00" timeLoss="88.55" traveltime="218.00">
        <walk depart="15.50" departPos="100.00" arrival="233.50" arrivalPos="93.20" duration="218.00" routeLength="210.56" timeLoss="88.55" maxSpeed="1.63"/>
    </personinfo>
    <tripinfo id="EW.1" depart="187.50" departLane="4_1_2" departPos="5.10" departSpeed="0.00" departDelay="0.00" arrival="236.50" arrivalLane="1_2_1" arrivalPos="186.40" arrivalSpeed="10.80" duration="49.00" routeLength="394.90" waitingTime="5.50" waitingCount="1" stopTime="0.00" timeLoss="12.13" rerouteNo="0" devices="tripinfo_EW.1 routing_EW.1" vType="DEFAULT_VEHTYPE" speedFactor="0.96" vaporized=""/>
    <personinfo id="person_WE_s.1" depart="54.50" type="DEFAULT_PEDTYPE" speedFactor="1.08" duration="183.00" waitingTime="0.00" timeLoss="43.84" traveltime="183.00">
        <walk depart="54.50" departPos="100.00" arrival="237.50" arrivalPos="93.20" duration="183.00" routeLength="209.26" timeLoss="43.84" maxSpeed="1.50"/>
    </personinfo>
    <personinfo id="person_WE_s.3" depart="77.50" type="DEFAULT_PEDTYPE" speedFactor="1.05" duration="164.00" waitingTime="0.00" timeLoss="19.93" traveltime="164.00">
        <walk depart="77.50" departPos="100.00" arrival="241.50" arrivalPos="93.20" duration="164.00" routeLength="209.26" timeLoss="19.93" maxSpeed="1.45"/>
    </personinfo>
    <personinfo id="person_WE_n.0" depart="12.50" type="DEFAULT_PEDTYPE" speedFactor="1.09" duration="230.50" waitingTime="0.00" timeLoss="82.69" traveltime="230.50">
        <walk depart="12.50" departPos="100.00" arrival="243.00" arrivalPos="93.20" duration="230.50" routeLength="224.16" timeLoss="82.69" maxSpeed="1.52"/>
    </personinfo>
    <personinfo id="person_EW_n.1" depart="29.00" type="DEFAULT_PEDTYPE" speedFactor="1.04" duration="214.50" waitingTime="0.00" timeLoss="68.73" traveltime="214.50">
        <walk depart="29.00" departPos="100.00" arrival="243.50" arrivalPos="93.20" duration="214.50" routeLength="210.56" timeLoss="68.73" maxSpeed="1.44"/>
    </personinfo>
    <personinfo id="person_NE_diag.0" depart="21.50" type="DEFAULT_PEDTYPE" speedFactor="1.00" duration="223.00" waitingTime="0.00" timeLoss="60.94" traveltime="223.00">
        <walk depart="21.50" departPos="100.00" arrival="244.50" arrivalPos="93.20" duration="223.00" routeLength="225.71" timeLoss="60.94" maxSpeed="1.39"/>
    </personinfo>
    <tripinfo id="SN.6" depart="205.00" departLane="3_1_2" departPos="5.10" departSpeed="0.00" departDelay="0.45" arrival="247.00" arrivalLane="1_5_1" arrivalPos="189.60" arrivalSpeed="11.70" duration="42.00" routeLength="395.22" waitingTime="0.50" waitingCount="1" stopTime="0.00" timeLoss="7.82" rerouteNo="0" devices="tripinfo_SN.6 routing_SN.6" vType="DEFAULT_VEHTYPE" speedFactor="1.04" vaporized=""/>
    <personinfo id="person_WE_s.0" depart="2.00" type="DEFAULT_PEDTYPE" speedFactor="0.98" duration="245.50" waitingTime="0.00" timeLoss="91.00" traveltime="245.50">
        <walk depart="2.00" departPos="100.00" arrival="247.50" arrivalPos="93.20" duration="245.50" routeLength="209.26" timeLoss="91.00" maxSpeed="1.35"/>
    </personinfo>
    <personinfo id="person_WE_n.2" depart="80.00" type="DEFAULT_PEDTYPE" speedFactor="1.09" duration="167.50" waitingTime="0.00" timeLoss="19.16" traveltime="167.50">
        <walk depart="80.00" departPos="100.00" arrival="247.50" arrivalPos="93.20" duration="167.50" routeLength="224.16" timeLoss="19.16" maxSpeed="1.51"/>
    </personinfo>
    <tripinfo id="WS.2" depart="167.00" departLane="2_1_1" departPos="5.10" departSpeed="0.00" departDelay="0.33" arrival="247.50" arrivalLane="1_3_1" arrivalPos="189.60" arrivalSpeed="10.90" duration="80.50" routeLength="385.10" waitingTime="36.00" waitingCount="2" stopTime="0.00" timeLoss="44.80" rerouteNo="0" devices="tripinfo_WS.2 routing_WS.2" vType="DEFAULT_VEHTYPE" speedFactor="0.98" vaporized=""/>
    <personinfo id="person_EW_n.2" depart="36.50" type="DEFAULT_PEDTYPE" speedFactor="0.96" duration="214.50" waitingTime="0.00" timeLoss="56.73" traveltime="214.50">
        <walk depart="36.50" departPos="100.00" arrival="251.00" arrivalPos="93.20" duration="214.50" routeLength="210.56" timeLoss="56.73" maxSpeed="1.33"/>
    </personinfo>
    <personinfo id="person_EW_n.3" depart="65.50" type="DEFAULT_PEDTYPE" speedFactor="0.97" duration="186.00" waitingTime="0.00" timeLoss="30.17" traveltime="186.00">
        <walk depart="65.50" departPos="100.00" arrival="251.50" arrivalPos="93.20" duration="186.00" routeLength="210.56" timeLoss="30.17" maxSpeed="1.35"/>
    </personinfo>
    <personinfo id="person_SW_diag.0" depart="59.00" type="DEFAULT_PEDTYPE" speedFactor="0.97" duration="193.00" waitingTime="0.00" timeLoss="22.15" traveltime="193.00">
        <walk depart="59.00" departPos="100.00" arrival="252.00" arrivalPos="93.20" duration="193.00" routeLength="230.53" timeLoss="22.15" maxSpeed="1.35"/>
    </personinfo>
    <tripinfo id="NS.9" depart="211.00" departLane="5_1_2" departPos="5.10" departSpeed="0.00" departDelay="0.06" arrival="252.00" arrivalLane="1_3_1" arrivalPos="189.60" arrivalSpeed="10.61" duration="41.00" routeLength="395.22" waitingTime="0.00" waitingCount="0" stopTime="0.00" timeLoss="4.05" rerouteNo="0" devices="tripinfo_NS.9 routing_NS.9" vType="DEFAULT_VEHTYPE" speedFactor="0.96" vaporized=""/>
    <tripinfo id="WE.3" depart="187.50" departLane="2_1_1" departPos="5.10" departSpeed="0.00" departDelay="0.00" arrival="253.50" arrivalLane="1_4_1" arrivalPos="186.40" arrivalSpeed="9.31" duration="66.00" routeLength="395.13" waitingTime="9.50" waitingCount="2" stopTime="0.00" timeLoss="23.45" rerouteNo="0" devices="tripinfo_WE.3 routing_WE.3" vType="DEFAULT_VEHTYPE" speedFactor="0.84" vaporized=""/>
    <personinfo id="person_WE_n.1" depart="22.50" type="DEFAULT_PEDTYPE" speedFactor="0.93" duration="232.00" waitingTime="0.00" timeLoss="59.11" traveltime="232.00">
        <walk depart="22.50" departPos="100.00" arrival="254.50" arrivalPos="93.20" duration="232.00" routeLength="224.16" timeLoss="59.11" maxSpeed="1.30"/>
    </personinfo>
    <personinfo id="person_NE_diag.1" depart="40.50" type="DEFAULT_PEDTYPE" speedFactor="0.90" duration="215.50" waitingTime="0.00" timeLoss="38.64" traveltime="215.50">
        <walk depart="40.50" departPos="100.00" arrival="256.00" arrivalPos="93.20" duration="215.50" routeLength="220.38" timeLoss="38.64" maxSpeed="1.25"/>
    </personinfo>
    <personinfo id="person_EW_s.0" depart="31.00" type="DEFAULT_PEDTYPE" speedFactor="0.93" duration="225.00" waitingTime="0.00" timeLoss="52.04" traveltime="225.00">
        <walk depart="31.00" departPos="100.00" arrival="256.00" arrivalPos="93.20" duration="225.00" routeLength="222.86" timeLoss="52.04" maxSpeed="1.29"/>
    </personinfo>
    <personinfo id="person_SE_diag.2" depart="126.50" type="DEFAULT_PEDTYPE" speedFactor="1.15" duration="131.00" waitingTime="0.00" timeLoss="13.36" traveltime="131.00">
        <walk depart="126.50" departPos="100.00" arrival="257.50" arrivalPos="93.20" duration="131.00" routeLength="187.66" timeLoss="13.36" maxSpeed="1.60"/>
    </personinfo>
    <tripinfo id="EN.1" depart="187.50" departLane="4_1_1" departPos="5.10" departSpeed="0.00" departDelay="0.00" arrival="257.50" arrivalLane="1_5_1" arrivalPos="189.60" arrivalSpeed="7.34" duration="70.00" routeLength="382.62" waitingTime="13.00" waitingCount="3" stopTime="0.00" timeLoss="21.06" rerouteNo="0" devices="tripinfo_EN.1 routing_EN.1" vType="DEFAULT_VEHTYPE" speedFactor="0.71" vaporized=""/>
    <tripinfo id="NS.8" depart="188.00" departLane="5_1_2" departPos="5.10" departSpeed="0.00" departDelay="0.50" arrival="258.00" arrivalLane="1_3_1" arrivalPos="189.60" arrivalSpeed="8.30" duration="70.00" routeLength="395.22" waitingTime="16.50" waitingCount="1" stopTime="0.00" timeLoss="23.00" rerouteNo="0" devices="tripinfo_NS.8 routing_NS.8" vType="DEFAULT_VEHTYPE" speedFactor="0.75" vaporized=""/>
    <personinfo id="person_NW_diag.1" depart="89.50" type="DEFAULT_PEDTYPE" speedFactor="0.88" duration="173.50" waitingTime="0.00" timeLoss="17.06" traveltime="173.50">
        <walk depart="89.50" departPos="100.00" arrival="263.00" arrivalPos="93.20" duration="173.50" routeLength="190.90" timeLoss="17.06" maxSpeed="1.22"/>
    </personinfo>
    <tripinfo id="SN.5" depart="170.50" departLane="3_1_1" departPos="5.10" departSpeed="0.00" departDelay="0.05" arrival="263.00" arrivalLane="1_5_1" arrivalPos="189.60" arrivalSpeed="9.52" duration="92.50" routeLength="395.22" waitingTime="44.50" waitingCount="2" stopTime="0.00" timeLoss="52.17" rerouteNo="0" devices="tripinfo_SN.5 routing_SN.5" vType="DEFAULT_VEHTYPE" speedFactor="0.88" vaporized=""/>
    <tripinfo id="NS.10" depart="234.50" departLane="5_1_1" departPos="5.10" departSpeed="0.00" departDelay="0.12" arrival="270.00" arrivalLane="1_3_1" arrivalPos="189.60" arrivalSpeed="12.35" duration="35.50" routeLength="395.22" waitingTime="0.00" waitingCount="0" stopTime="0.00" timeLoss="3.89" rerouteNo="0" devices="tripinfo_NS.10 routing_NS.10" vType="DEFAULT_VEHTYPE" speedFactor="1.13" vaporized=""/>
    <personinfo id="person_SN_e.0" depart="113.00" type="DEFAULT_PEDTYPE" speedFactor="1.04" duration="161.00" waitingTime="0.00" timeLoss="16.21" traveltime="161.00">
        <walk depart="113.00" departPos="100.00" arrival="274.00" arrivalPos="94.80" duration="161.00" routeLength="209.13" timeLoss="16.21" maxSpeed="1.44"/>
    </personinfo>
    <tripinfo id="SE.3" depart="205.00" departLane="3_1_1" departPos="5.10" departSpeed="0.00" departDelay="0.45" arrival="280.00" arrivalLane="1_4_1" arrivalPos="186.40" arrivalSpeed="12.06" duration="75.00" routeLength="379.93" waitingTime="27.00" waitingCount="4" stopTime="0.00" timeLoss="44.50" rerouteNo="0" devices="tripinfo_SE.3 routing_SE.3" vType="DEFAULT_VEHTYPE" speedFactor="1.13" vaporized=""/>
    <tripinfo id="NW.4" depart="250.00" departLane="5_1_1" departPos="5.10" departSpeed="0.00" departDelay="0.00" arrival="290.50" arrivalLane="1_2_1" arrivalPos="186.40" arrivalSpeed="10.78" duration="40.50" routeLength="382.62" waitingTime="0.00" waitingCount="0" stopTime="0.00" timeLoss="4.54" rerouteNo="0" devices="tripinfo_NW.4 routing_NW.4" vType="DEFAULT_VEHTYPE" speedFactor="0.98" vaporized=""/>
    <tripinfo id="NS.11" depart="258.00" departLane="5_1_2" departPos="5.10" departSpeed="0.00" departDelay="0.18" arrival="290.50" arrivalLane="1_3_2" arrivalPos="189.60" arrivalSpeed="13.74" duration="32.50" routeLength="395.22" waitingTime="0.00" waitingCount="0" stopTime="0.00" timeLoss="4.07" rerouteNo="0" devices="tripinfo_NS.11 routing_NS.11" vType="DEFAULT_VEHTYPE" speedFactor="1.26" vaporized=""/>
    <personinfo id="person_NS_e.1" depart="71.50" type="DEFAULT_PEDTYPE" speedFactor="0.82" duration="220.50" waitingTime="0.00" timeLoss="28.24" traveltime="220.50">
        <walk depart="71.50" departPos="100.00" arrival="292.00" arrivalPos="94.80" duration="220.50" routeLength="219.53" timeLoss="28.24" maxSpeed="1.14"/>
    </personinfo>
    <personinfo id="person_NW_diag.3" depart="160.50" type="DEFAULT_PEDTYPE" speedFactor="1.13" duration="136.00" waitingTime="0.00" timeLoss="14.03" traveltime="136.00">
        <walk depart="160.50" departPos="100.00" arrival="296.50" arrivalPos="93.20" duration="136.00" routeLength="190.90" timeLoss="14.03" maxSpeed="1.57"/>
    </personinfo>
    <personinfo id="person_NW_diag.2" depart="108.50" type="DEFAULT_PEDTYPE" speedFactor="0.80" duration="188.50" waitingTime="0.00" timeLoss="17.69" traveltime="188.50">
        <walk depart="108.50" departPos="100.00" arrival="297.00" arrivalPos="93.20" duration="188.50" routeLength="190.90" timeLoss="17.69" maxSpeed="1.12"/>
    </personinfo>
    <personinfo id="person_NE_diag.2" depart="102.50" type="DEFAULT_PEDTYPE" speedFactor="1.09" duration="195.50" waitingTime="0.00" timeLoss="49.65" traveltime="195.50">
        <walk depart="102.50" departPos="100.00" arrival="298.00" arrivalPos="93.20" duration="195.50" routeLength="220.38" timeLoss="49.65" maxSpeed="1.51"/>
    </personinfo>
    <personinfo id="person_EW_n.8" depart="118.00" type="DEFAULT_PEDTYPE" speedFactor="1.12" duration="180.50" waitingTime="0.00" timeLoss="45.20" traveltime="180.50">
        <walk depart="118.00" departPos="100.00" arrival="298.50" arrivalPos="93.20" duration="180.50" routeLength="210.56" timeLoss="45.20" maxSpeed="1.56"/>
    </personinfo>
    <personinfo id="person_WE_s.4" depart="124.50" type="DEFAULT_PEDTYPE" speedFactor="1.08" duration="175.50" waitingTime="0.00" timeLoss="35.70" traveltime="175.50">
        <walk depart="124.50" departPos="100.00" arrival="300.00" arrivalPos="93.20" duration="175.50" routeLength="209.26" timeLoss="35.70" maxSpeed="1.50"/>
    </personinfo>
    <personinfo id="person_EW_n.6" depart="107.50" type="DEFAULT_PEDTYPE" speedFactor="1.08" duration="194.00" waitingTime="0.00" timeLoss="53.68" traveltime="194.00">
        <walk depart="107.50" departPos="100.00" arrival="301.50" arrivalPos="93.20" duration="194.00" routeLength="210.56" timeLoss="53.68" maxSpeed="1.50"/>
    </personinfo>
    <tripinfo id="WE.4" depart="250.00" departLane="2_1_1" departPos="5.10" departSpeed="0.00" departDelay="0.00" arrival="305.50" arrivalLane="1_4_1" arrivalPos="186.40" arrivalSpeed="10.25" duration="55.50" routeLength="395.13" waitingTime="8.00" waitingCount="2" stopTime="0.00" timeLoss="16.64" rerouteNo="0" devices="tripinfo_WE.4 routing_WE.4" vType="DEFAULT_VEHTYPE" speedFactor="0.92" vaporized=""/>