<?xml version="1.0" encoding="UTF-8"?>

<!-- generated on 2025-03-17 11:55:18 by Eclipse SUMO GUI Version 1.22.0
<sumoConfiguration xmlns:xsi="http://www.w3.org/2001/XMLSchema-instance" xsi:noNamespaceSchemaLocation="http://sumo.dlr.de/xsd/sumoConfiguration.xsd">

    <input>
        <net-file value="C:\Users\chris\PycharmProjects\UW_CET593_project2\environment/network_model/UW_intersection_pedestrian_X.net.xml"/>
        <route-files value="C:\Users\chris\PycharmProjects\UW_CET593_project2\environment/network_model/UW_IntersectionNormalDemand.rou.xml"/>
        <additional-files value="C:\Users\chris\PycharmProjects\UW_CET593_project2\environment/network_model/UW_intersection_Exclusive.add.xml"/>
    </input>

    <output>
        <queue-output value="C:\Users\chris\PycharmProjects\UW_CET593_project2\environment/simulation_data/UW_intersection/queues_multi_scale_symmetric_pene_100.xml"/>
        <tripinfo-output value="C:\Users\chris\PycharmProjects\UW_CET593_project2\environment/simulation_data/UW_intersection/tripinfo_multi_scale_symmetric_pene_100.xml"/>
    </output>

    <time>
        <begin value="0"/>
        <step-length value="0.5"/>
    </time>

    <processing>
        <waiting-time-memory value="1000"/>
    </processing>

    <report>
        <verbose value="true"/>
        <no-step-log value="true"/>
    </report>

    <traci_server>
        <remote-port value="55314"/>
    </traci_server>

    <gui_only>
        <start value="true"/>
    </gui_only>

</sumoConfiguration>
-->

<tripinfos xmlns:xsi="http://www.w3.org/2001/XMLSchema-instance" xsi:noNamespaceSchemaLocation="http://sumo.dlr.de/xsd/tripinfo_file.xsd">
    <tripinfo id="NS.0" depart="0.00" departLane="5_1_1" departPos="5.10" departSpeed="0.00" departDelay="0.00" arrival="37.50" arrivalLane="1_3_1" arrivalPos="189.60" arrivalSpeed="11.84" duration="37.50" routeLength="395.22" waitingTime="0.00" waitingCount="0" stopTime="0.00" timeLoss="3.75" rerouteNo="0" devices="tripinfo_NS.0 routing_NS.0" vType="DEFAULT_VEHTYPE" speedFactor="1.06" vaporized=""/>
    <tripinfo id="SN.0" depart="0.00" departLane="3_1_2" departPos="5.10" departSpeed="0.00" departDelay="0.00" arrival="37.50" arrivalLane="1_5_2" arrivalPos="189.60" arrivalSpeed="11.73" duration="37.50" routeLength="395.22" waitingTime="0.00" waitingCount="0" stopTime="0.00" timeLoss="3.61" rerouteNo="0" devices="tripinfo_SN.0 routing_SN.0" vType="DEFAULT_VEHTYPE" speedFactor="1.05" vaporized=""/>
    <tripinfo id="SE.0" depart="0.00" departLane="3_1_1" departPos="5.10" departSpeed="0.00" departDelay="0.00" arrival="38.50" arrivalLane="1_4_1" arrivalPos="186.40" arrivalSpeed="11.10" duration="38.50" routeLength="379.93" waitingTime="0.00" waitingCount="0" stopTime="0.00" timeLoss="3.47" rerouteNo="0" devices="tripinfo_SE.0 routing_SE.0" vType="DEFAULT_VEHTYPE" speedFactor="0.99" vaporized=""/>
    <tripinfo id="SW.0" depart="0.00" departLane="3_1_3" departPos="5.10" departSpeed="0.00" departDelay="0.00" arrival="42.00" arrivalLane="1_2_1" arrivalPos="186.40" arrivalSpeed="10.12" duration="42.00" routeLength="392.89" waitingTime="0.00" waitingCount="0" stopTime="0.00" timeLoss="2.77" rerouteNo="0" devices="tripinfo_SW.0 routing_SW.0" vType="DEFAULT_VEHTYPE" speedFactor="0.90" vaporized=""/>
    <tripinfo id="NE.0" depart="0.00" departLane="5_1_3" departPos="5.10" departSpeed="0.00" departDelay="0.00" arrival="42.50" arrivalLane="1_4_2" arrivalPos="186.40" arrivalSpeed="10.71" duration="42.50" routeLength="392.89" waitingTime="0.00" waitingCount="0" stopTime="0.00" timeLoss="5.50" rerouteNo="0" devices="tripinfo_NE.0 routing_NE.0" vType="DEFAULT_VEHTYPE" speedFactor="0.96" vaporized=""/>
    <tripinfo id="NW.0" depart="2.50" departLane="5_1_1" departPos="5.10" departSpeed="0.00" departDelay="2.50" arrival="43.50" arrivalLane="1_2_1" arrivalPos="186.40" arrivalSpeed="11.06" duration="41.00" routeLength="382.62" waitingTime="0.00" waitingCount="0" stopTime="0.00" timeLoss="5.84" rerouteNo="0" devices="tripinfo_NW.0 routing_NW.0" vType="DEFAULT_VEHTYPE" speedFactor="0.99" vaporized=""/>
    <tripinfo id="WE.0" depart="0.00" departLane="2_1_1" departPos="5.10" departSpeed="0.00" departDelay="0.00" arrival="45.50" arrivalLane="1_4_1" arrivalPos="186.40" arrivalSpeed="12.26" duration="45.50" routeLength="395.13" waitingTime="2.50" waitingCount="1" stopTime="0.00" timeLoss="12.90" rerouteNo="0" devices="tripinfo_WE.0 routing_WE.0" vType="DEFAULT_VEHTYPE" speedFactor="1.09" vaporized=""/>
    <tripinfo id="EN.0" depart="0.00" departLane="4_1_1" departPos="5.10" departSpeed="0.00" departDelay="0.00" arrival="46.00" arrivalLane="1_5_1" arrivalPos="189.60" arrivalSpeed="10.98" duration="46.00" routeLength="382.62" waitingTime="2.50" waitingCount="1" stopTime="0.00" timeLoss="10.65" rerouteNo="0" devices="tripinfo_EN.0 routing_EN.0" vType="DEFAULT_VEHTYPE" speedFactor="0.98" vaporized=""/>
    <tripinfo id="WN.0" depart="2.50" departLane="2_1_1" departPos="5.10" departSpeed="0.00" departDelay="2.50" arrival="47.00" arrivalLane="1_5_2" arrivalPos="189.60" arrivalSpeed="12.46" duration="44.50" routeLength="392.90" waitingTime="0.00" waitingCount="0" stopTime="0.00" timeLoss="12.67" rerouteNo="0" devices="tripinfo_WN.0 routing_WN.0" vType="DEFAULT_VEHTYPE" speedFactor="1.11" vaporized=""/>
    <tripinfo id="WS.0" depart="5.00" departLane="2_1_1" departPos="5.10" departSpeed="0.00" departDelay="5.00" arrival="49.00" arrivalLane="1_3_1" arrivalPos="189.60" arrivalSpeed="12.02" duration="44.00" routeLength="385.10" waitingTime="0.00" waitingCount="0" stopTime="0.00" timeLoss="11.51" rerouteNo="0" devices="tripinfo_WS.0 routing_WS.0" vType="DEFAULT_VEHTYPE" speedFactor="1.07" vaporized=""/>
    <tripinfo id="ES.0" depart="0.00" departLane="4_1_2" departPos="5.10" departSpeed="0.00" departDelay="0.00" arrival="49.50" arrivalLane="1_3_2" arrivalPos="189.60" arrivalSpeed="11.68" duration="49.50" routeLength="392.89" waitingTime="4.00" waitingCount="2" stopTime="0.00" timeLoss="15.47" rerouteNo="0" devices="tripinfo_ES.0 routing_ES.0" vType="DEFAULT_VEHTYPE" speedFactor="1.04" vaporized=""/>
    <tripinfo id="EW.0" depart="2.50" departLane="4_1_2" departPos="5.10" departSpeed="0.00" departDelay="2.50" arrival="52.50" arrivalLane="1_2_1" arrivalPos="186.40" arrivalSpeed="10.99" duration="50.00" routeLength="394.90" waitingTime="1.00" waitingCount="1" stopTime="0.00" timeLoss="13.76" rerouteNo="0" devices="tripinfo_EW.0 routing_EW.0" vType="DEFAULT_VEHTYPE" speedFactor="0.98" vaporized=""/>
    <tripinfo id="NS.1" depart="19.00" departLane="5_1_2" departPos="5.10" departSpeed="0.00" departDelay="0.25" arrival="56.00" arrivalLane="1_3_1" arrivalPos="189.60" arrivalSpeed="13.00" duration="37.00" routeLength="395.22" waitingTime="0.00" waitingCount="0" stopTime="0.00" timeLoss="7.45" rerouteNo="0" devices="tripinfo_NS.1 routing_NS.1" vType="DEFAULT_VEHTYPE" speedFactor="1.21" vaporized=""/>
    <tripinfo id="SN.1" depart="27.50" departLane="3_1_1" departPos="5.10" departSpeed="0.00" departDelay="0.23" arrival="64.00" arrivalLane="1_5_1" arrivalPos="189.60" arrivalSpeed="12.89" duration="36.50" routeLength="395.22" waitingTime="0.00" waitingCount="0" stopTime="0.00" timeLoss="5.57" rerouteNo="0" devices="tripinfo_SN.1 routing_SN.1" vType="DEFAULT_VEHTYPE" speedFactor="1.15" vaporized=""/>
    <tripinfo id="NS.2" depart="37.50" departLane="5_1_2" departPos="5.10" departSpeed="0.00" departDelay="0.00" arrival="73.50" arrivalLane="1_3_1" arrivalPos="189.60" arrivalSpeed="12.68" duration="36.00" routeLength="395.22" waitingTime="0.00" waitingCount="0" stopTime="0.00" timeLoss="4.59" rerouteNo="0" devices="tripinfo_NS.2 routing_NS.2" vType="DEFAULT_VEHTYPE" speedFactor="1.13" vaporized=""/>
    <tripinfo id="NW.1" depart="50.00" departLane="5_1_1" departPos="5.10" departSpeed="0.00" departDelay="0.00" arrival="90.00" arrivalLane="1_2_1" arrivalPos="186.40" arrivalSpeed="10.92" duration="40.00" routeLength="382.62" waitingTime="0.00" waitingCount="0" stopTime="0.00" timeLoss="4.34" rerouteNo="0" devices="tripinfo_NW.1 routing_NW.1" vType="DEFAULT_VEHTYPE" speedFactor="0.98" vaporized=""/>
    <tripinfo id="SN.2" depart="55.00" departLane="3_1_2" departPos="5.10" departSpeed="0.00" departDelay="0.45" arrival="91.50" arrivalLane="1_5_1" arrivalPos="189.60" arrivalSpeed="12.95" duration="36.50" routeLength="395.22" waitingTime="0.00" waitingCount="0" stopTime="0.00" timeLoss="5.61" rerouteNo="0" devices="tripinfo_SN.2 routing_SN.2" vType="DEFAULT_VEHTYPE" speedFactor="1.16" vaporized=""/>
    <tripinfo id="NS.3" depart="56.50" departLane="5_1_2" departPos="5.10" departSpeed="0.00" departDelay="0.25" arrival="99.00" arrivalLane="1_3_1" arrivalPos="189.60" arrivalSpeed="9.79" duration="42.50" routeLength="395.22" waitingTime="0.00" waitingCount="0" stopTime="0.00" timeLoss="2.08" rerouteNo="0" devices="tripinfo_NS.3 routing_NS.3" vType="DEFAULT_VEHTYPE" speedFactor="0.87" vaporized=""/>
    <tripinfo id="SE.1" depart="55.00" departLane="3_1_1" departPos="5.10" departSpeed="0.00" departDelay="0.46" arrival="99.50" arrivalLane="1_4_1" arrivalPos="186.40" arrivalSpeed="12.70" duration="44.50" routeLength="379.93" waitingTime="5.50" waitingCount="1" stopTime="0.00" timeLoss="13.77" rerouteNo="0" devices="tripinfo_SE.1 routing_SE.1" vType="DEFAULT_VEHTYPE" speedFactor="1.13" vaporized=""/>
    <tripinfo id="WE.1" depart="50.00" departLane="2_1_1" departPos="5.10" departSpeed="0.00" departDelay="0.00" arrival="102.00" arrivalLane="1_4_1" arrivalPos="186.40" arrivalSpeed="13.00" duration="52.00" routeLength="395.13" waitingTime="11.00" waitingCount="2" stopTime="0.00" timeLoss="21.80" rerouteNo="0" devices="tripinfo_WE.1 routing_WE.1" vType="DEFAULT_VEHTYPE" speedFactor="1.18" vaporized=""/>
    <tripinfo id="WS.1" depart="67.00" departLane="2_1_1" departPos="5.10" departSpeed="0.00" departDelay="0.33" arrival="118.50" arrivalLane="1_3_1" arrivalPos="189.60" arrivalSpeed="9.71" duration="51.50" routeLength="385.10" waitingTime="6.00" waitingCount="1" stopTime="0.00" timeLoss="10.77" rerouteNo="0" devices="tripinfo_WS.1 routing_WS.1" vType="DEFAULT_VEHTYPE" speedFactor="0.87" vaporized=""/>
    <personinfo id="person_NS_e.0" depart="5.50" type="DEFAULT_PEDTYPE" speedFactor="1.25" duration="140.00" waitingTime="0.00" timeLoss="13.57" traveltime="140.00">
        <walk depart="5.50" departPos="100.00" arrival="145.50" arrivalPos="94.80" duration="140.00" routeLength="219.53" timeLoss="13.57" maxSpeed="1.74"/>
    </personinfo>
    <tripinfo id="NS.5" depart="94.00" departLane="5_1_2" departPos="5.10" departSpeed="0.00" departDelay="0.25" arrival="159.50" arrivalLane="1_3_1" arrivalPos="189.60" arrivalSpeed="11.28" duration="65.50" routeLength="395.22" waitingTime="24.00" waitingCount="1" stopTime="0.00" timeLoss="30.16" rerouteNo="0" devices="tripinfo_NS.5 routing_NS.5" vType="DEFAULT_VEHTYPE" speedFactor="1.01" vaporized=""/>
    <personinfo id="person_NW_diag.0" depart="4.50" type="DEFAULT_PEDTYPE" speedFactor="0.98" duration="156.00" waitingTime="0.00" timeLoss="16.33" traveltime="156.00">
        <walk depart="4.50" departPos="100.00" arrival="160.50" arrivalPos="93.20" duration="156.00" routeLength="190.90" timeLoss="16.33" maxSpeed="1.37"/>
    </personinfo>
    <tripinfo id="SN.3" depart="82.00" departLane="3_1_1" departPos="5.10" departSpeed="0.00" departDelay="0.18" arrival="160.50" arrivalLane="1_5_1" arrivalPos="189.60" arrivalSpeed="10.50" duration="78.50" routeLength="395.22" waitingTime="34.00" waitingCount="1" stopTime="0.00" timeLoss="40.79" rerouteNo="0" devices="tripinfo_SN.3 routing_SN.3" vType="DEFAULT_VEHTYPE" speedFactor="0.94" vaporized=""/>
    <tripinfo id="SN.4" depart="109.50" departLane="3_1_2" departPos="5.10" departSpeed="0.00" departDelay="0.41" arrival="161.50" arrivalLane="1_5_1" arrivalPos="189.60" arrivalSpeed="10.07" duration="52.00" routeLength="395.22" waitingTime="7.00" waitingCount="1" stopTime="0.00" timeLoss="12.47" rerouteNo="0" devices="tripinfo_SN.4 routing_SN.4" vType="DEFAULT_VEHTYPE" speedFactor="0.90" vaporized=""/>
    <tripinfo id="NS.6" depart="112.50" departLane="5_1_2" departPos="5.10" departSpeed="0.00" departDelay="0.00" arrival="162.00" arrivalLane="1_3_2" arrivalPos="189.60" arrivalSpeed="10.72" duration="49.50" routeLength="395.22" waitingTime="1.00" waitingCount="1" stopTime="0.00" timeLoss="12.21" rerouteNo="0" devices="tripinfo_NS.6 routing_NS.6" vType="DEFAULT_VEHTYPE" speedFactor="0.96" vaporized=""/>
    <tripinfo id="NS.4" depart="75.00" departLane="5_1_2" departPos="5.10" departSpeed="0.00" departDelay="0.00" arrival="163.00" arrivalLane="1_3_1" arrivalPos="189.60" arrivalSpeed="9.24" duration="88.00" routeLength="395.22" waitingTime="39.50" waitingCount="1" stopTime="0.00" timeLoss="45.16" rerouteNo="0" devices="tripinfo_NS.4 routing_NS.4" vType="DEFAULT_VEHTYPE" speedFactor="0.82" vaporized=""/>
    <personinfo id="person_SW_diag.0" depart="30.00" type="DEFAULT_PEDTYPE" speedFactor="1.30" duration="135.00" waitingTime="0.00" timeLoss="13.89" traveltime="135.00">
        <walk depart="30.00" departPos="100.00" arrival="165.00" arrivalPos="93.20" duration="135.00" routeLength="218.63" timeLoss="13.89" maxSpeed="1.81"/>
    </personinfo>
    <tripinfo id="NW.2" depart="100.00" departLane="5_1_1" departPos="5.10" departSpeed="0.00" departDelay="0.00" arrival="165.00" arrivalLane="1_2_1" arrivalPos="186.40" arrivalSpeed="10.37" duration="65.00" routeLength="382.62" waitingTime="14.00" waitingCount="3" stopTime="0.00" timeLoss="27.14" rerouteNo="0" devices="tripinfo_NW.2 routing_NW.2" vType="DEFAULT_VEHTYPE" speedFactor="0.93" vaporized=""/>
    <tripinfo id="WE.2" depart="100.00" departLane="2_1_1" departPos="5.10" departSpeed="0.00" departDelay="0.00" arrival="168.50" arrivalLane="1_4_1" arrivalPos="186.40" arrivalSpeed="10.66" duration="68.50" routeLength="395.13" waitingTime="26.00" waitingCount="1" stopTime="0.00" timeLoss="31.39" rerouteNo="0" devices="tripinfo_WE.2 routing_WE.2" vType="DEFAULT_VEHTYPE" speedFactor="0.95" vaporized=""/>
    <tripinfo id="WS.2" depart="133.50" departLane="2_1_1" departPos="5.10" departSpeed="0.00" departDelay="0.17" arrival="172.50" arrivalLane="1_3_1" arrivalPos="189.60" arrivalSpeed="11.31" duration="39.00" routeLength="385.10" waitingTime="0.00" waitingCount="0" stopTime="0.00" timeLoss="4.29" rerouteNo="0" devices="tripinfo_WS.2 routing_WS.2" vType="DEFAULT_VEHTYPE" speedFactor="1.01" vaporized=""/>
    <personinfo id="person_NW_diag.1" depart="20.50" type="DEFAULT_PEDTYPE" speedFactor="1.00" duration="153.50" waitingTime="0.00" timeLoss="15.49" traveltime="153.50">
        <walk depart="20.50" departPos="100.00" arrival="174.00" arrivalPos="93.20" duration="153.50" routeLength="190.90" timeLoss="15.49" maxSpeed="1.38"/>
    </personinfo>
    <personinfo id="person_WE_s.0" depart="2.00" type="DEFAULT_PEDTYPE" speedFactor="0.98" duration="173.00" waitingTime="0.00" timeLoss="18.50" traveltime="173.00">
        <walk depart="2.00" departPos="100.00" arrival="175.00" arrivalPos="93.20" duration="173.00" routeLength="209.26" timeLoss="18.50" maxSpeed="1.35"/>
    </personinfo>
    <personinfo id="person_EW_n.1" depart="17.50" type="DEFAULT_PEDTYPE" speedFactor="1.09" duration="161.50" waitingTime="0.00" timeLoss="22.54" traveltime="161.50">
        <walk depart="17.50" departPos="100.00" arrival="179.00" arrivalPos="93.20" duration="161.50" routeLength="210.56" timeLoss="22.54" maxSpeed="1.52"/>
    </personinfo>
    <personinfo id="person_SN_w.0" depart="3.00" type="DEFAULT_PEDTYPE" speedFactor="1.00" duration="177.00" waitingTime="0.00" timeLoss="20.48" traveltime="177.00">
        <walk depart="3.00" departPos="100.00" arrival="180.00" arrivalPos="94.80" duration="177.00" routeLength="217.89" timeLoss="20.48" maxSpeed="1.39"/>
    </personinfo>
    <tripinfo id="NS.7" depart="131.50" departLane="5_1_1" departPos="5.10" departSpeed="0.00" departDelay="0.25" arrival="180.00" arrivalLane="1_3_1" arrivalPos="189.60" arrivalSpeed="11.45" duration="48.50" routeLength="395.22" waitingTime="7.00" waitingCount="1" stopTime="0.00" timeLoss="13.93" rerouteNo="0" devices="tripinfo_NS.7 routing_NS.7" vType="DEFAULT_VEHTYPE" speedFactor="1.02" vaporized=""/>
    <tripinfo id="SN.5" depart="136.50" departLane="3_1_2" departPos="5.10" departSpeed="0.00" departDelay="0.14" arrival="181.50" arrivalLane="1_5_1" arrivalPos="189.60" arrivalSpeed="10.47" duration="45.00" routeLength="395.22" waitingTime="0.50" waitingCount="1" stopTime="0.00" timeLoss="7.23" rerouteNo="0" devices="tripinfo_SN.5 routing_SN.5" vType="DEFAULT_VEHTYPE" speedFactor="0.93" vaporized=""/>
    <personinfo id="person_SE_diag.0" depart="25.50" type="DEFAULT_PEDTYPE" speedFactor="0.96" duration="156.50" waitingTime="0.00" timeLoss="16.37" traveltime="156.50">
        <walk depart="25.50" departPos="100.00" arrival="182.00" arrivalPos="93.20" duration="156.50" routeLength="187.66" timeLoss="16.37" maxSpeed="1.34"/>
    </personinfo>
    <tripinfo id="SE.2" depart="109.50" departLane="3_1_1" departPos="5.10" departSpeed="0.00" departDelay="0.41" arrival="188.50" arrivalLane="1_4_1" arrivalPos="186.40" arrivalSpeed="11.25" duration="79.00" routeLength="379.93" waitingTime="30.50" waitingCount="3" stopTime="0.00" timeLoss="44.50" rerouteNo="0" devices="tripinfo_SE.2 routing_SE.2" vType="DEFAULT_VEHTYPE" speedFactor="1.00" vaporized=""/>
    <tripinfo id="EN.1" depart="150.00" departLane="4_1_1" departPos="5.10" departSpeed="0.00" departDelay="0.00" arrival="188.50" arrivalLane="1_5_1" arrivalPos="189.60" arrivalSpeed="11.00" duration="38.50" routeLength="382.62" waitingTime="0.00" waitingCount="0" stopTime="0.00" timeLoss="9.04" rerouteNo="0" devices="tripinfo_EN.1 routing_EN.1" vType="DEFAULT_VEHTYPE" speedFactor="1.18" vaporized=""/>
    <tripinfo id="NS.8" depart="150.00" departLane="5_1_2" departPos="5.10" departSpeed="0.00" departDelay="0.00" arrival="189.00" arrivalLane="1_3_1" arrivalPos="189.60" arrivalSpeed="11.00" duration="39.00" routeLength="395.22" waitingTime="0.00" waitingCount="0" stopTime="0.00" timeLoss="4.06" rerouteNo="0" devices="tripinfo_NS.8 routing_NS.8" vType="DEFAULT_VEHTYPE" speedFactor="1.02" vaporized=""/>
    <tripinfo id="NE.1" depart="150.00" departLane="5_1_3" departPos="5.10" departSpeed="0.00" departDelay="0.00" arrival="189.50" arrivalLane="1_4_2" arrivalPos="186.40" arrivalSpeed="11.00" duration="39.50" routeLength="392.89" waitingTime="0.00" waitingCount="0" stopTime="0.00" timeLoss="8.68" rerouteNo="0" devices="tripinfo_NE.1 routing_NE.1" vType="DEFAULT_VEHTYPE" speedFactor="1.16" vaporized=""/>
    <tripinfo id="NW.3" depart="150.00" departLane="5_1_1" departPos="5.10" departSpeed="0.00" departDelay="0.00" arrival="189.50" arrivalLane="1_2_1" arrivalPos="186.40" arrivalSpeed="10.80" duration="39.50" routeLength="382.62" waitingTime="0.00" waitingCount="0" stopTime="0.00" timeLoss="3.04" rerouteNo="0" devices="tripinfo_NW.3 routing_NW.3" vType="DEFAULT_VEHTYPE" speedFactor="0.96" vaporized=""/>
    <personinfo id="person_WE_n.0" depart="10.00" type="DEFAULT_PEDTYPE" speedFactor="1.00" duration="180.00" waitingTime="0.00" timeLoss="18.12" traveltime="180.00">
        <walk depart="10.00" departPos="100.00" arrival="190.00" arrivalPos="93.20" duration="180.00" routeLength="224.16" timeLoss="18.12" maxSpeed="1.38"/>
    </personinfo>
    <personinfo id="person_WE_s.2" depart="51.50" type="DEFAULT_PEDTYPE" speedFactor="1.20" duration="140.00" waitingTime="0.00" timeLoss="14.49" traveltime="140.00">
        <walk depart="51.50" departPos="100.00" arrival="191.50" arrivalPos="93.20" duration="140.00" routeLength="209.26" timeLoss="14.49" maxSpeed="1.67"/>
    </personinfo>
    <personinfo id="person_WE_n.1" depart="31.50" type="DEFAULT_PEDTYPE" speedFactor="1.12" duration="160.00" waitingTime="0.00" timeLoss="15.81" traveltime="160.00">
        <walk depart="31.50" departPos="100.00" arrival="191.50" arrivalPos="93.20" duration="160.00" routeLength="224.16" timeLoss="15.81" maxSpeed="1.55"/>
    </personinfo>
    <personinfo id="person_EW_n.0" depart="14.50" type="DEFAULT_PEDTYPE" speedFactor="0.95" duration="178.00" waitingTime="0.00" timeLoss="18.59" traveltime="178.00">
        <walk depart="14.50" departPos="100.00" arrival="192.50" arrivalPos="93.20" duration="178.00" routeLength="210.56" timeLoss="18.59" maxSpeed="1.32"/>
    </personinfo>
    <personinfo id="person_SE_diag.1" depart="44.00" type="DEFAULT_PEDTYPE" speedFactor="1.00" duration="151.50" waitingTime="0.00" timeLoss="15.87" traveltime="151.50">
        <walk depart="44.00" departPos="100.00" arrival="195.50" arrivalPos="93.20" duration="151.50" routeLength="187.66" timeLoss="15.87" maxSpeed="1.38"/>
    </personinfo>
    <personinfo id="person_NE_diag.1" depart="28.50" type="DEFAULT_PEDTYPE" speedFactor="1.02" duration="169.00" waitingTime="0.00" timeLoss="17.03" traveltime="169.00">
        <walk depart="28.50" departPos="100.00" arrival="197.50" arrivalPos="93.20" duration="169.00" routeLength="215.82" timeLoss="17.03" maxSpeed="1.42"/>
    </personinfo>
    <personinfo id="person_WE_s.1" depart="43.50" type="DEFAULT_PEDTYPE" speedFactor="1.08" duration="154.50" waitingTime="0.00" timeLoss="15.34" traveltime="154.50">
        <walk depart="43.50" departPos="100.00" arrival="198.00" arrivalPos="93.20" duration="154.50" routeLength="209.26" timeLoss="15.34" maxSpeed="1.50"/>
    </personinfo>
    <personinfo id="person_NW_diag.2" depart="32.00" type="DEFAULT_PEDTYPE" speedFactor="0.92" duration="166.50" waitingTime="0.00" timeLoss="17.50" traveltime="166.50">
        <walk depart="32.00" departPos="100.00" arrival="198.50" arrivalPos="93.20" duration="166.50" routeLength="190.90" timeLoss="17.50" maxSpeed="1.28"/>
    </personinfo>
    <personinfo id="person_NW_diag.3" depart="56.00" type="DEFAULT_PEDTYPE" speedFactor="1.06" duration="145.50" waitingTime="0.00" timeLoss="16.37" traveltime="145.50">
        <walk depart="56.00" departPos="100.00" arrival="201.50" arrivalPos="93.20" duration="145.50" routeLength="190.90" timeLoss="16.37" maxSpeed="1.48"/>
    </personinfo>
    <personinfo id="person_NS_e.2" depart="45.50" type="DEFAULT_PEDTYPE" speedFactor="1.13" duration="157.00" waitingTime="0.00" timeLoss="16.81" traveltime="157.00">
        <walk depart="45.50" departPos="100.00" arrival="202.50" arrivalPos="94.80" duration="157.00" routeLength="219.53" timeLoss="16.81" maxSpeed="1.57"/>
    </personinfo>
    <personinfo id="person_NE_diag.0" depart="11.50" type="DEFAULT_PEDTYPE" speedFactor="0.89" duration="193.50" waitingTime="0.00" timeLoss="18.93" traveltime="193.50">
        <walk depart="11.50" departPos="100.00" arrival="205.00" arrivalPos="93.20" duration="193.50" routeLength="215.82" timeLoss="18.93" maxSpeed="1.24"/>
    </personinfo>
    <personinfo id="person_SN_e.0" depart="43.00" type="DEFAULT_PEDTYPE" speedFactor="1.03" duration="162.00" waitingTime="0.00" timeLoss="15.81" traveltime="162.00">
        <walk depart="43.00" departPos="100.00" arrival="205.00" arrivalPos="94.80" duration="162.00" routeLength="209.13" timeLoss="15.81" maxSpeed="1.43"/>
    </personinfo>
    <personinfo id="person_NW_diag.4" depart="67.00" type="DEFAULT_PEDTYPE" speedFactor="1.09" duration="140.00" waitingTime="0.00" timeLoss="14.13" traveltime="140.00">
        <walk depart="67.00" departPos="100.00" arrival="207.00" arrivalPos="93.20" duration="140.00" routeLength="190.90" timeLoss="14.13" maxSpeed="1.52"/>
    </personinfo>
    <personinfo id="person_WE_n.2" depart="31.50" type="DEFAULT_PEDTYPE" speedFactor="1.00" duration="181.00" waitingTime="0.00" timeLoss="19.27" traveltime="181.00">
        <walk depart="31.50" departPos="100.00" arrival="212.50" arrivalPos="93.20" duration="181.00" routeLength="224.16" timeLoss="19.27" maxSpeed="1.39"/>
    </personinfo>
    <personinfo id="person_EW_n.2" depart="18.00" type="DEFAULT_PEDTYPE" speedFactor="0.86" duration="196.00" waitingTime="0.00" timeLoss="19.88" traveltime="196.00">
        <walk depart="18.00" departPos="100.00" arrival="214.00" arrivalPos="93.20" duration="196.00" routeLength="210.56" timeLoss="19.88" maxSpeed="1.20"/>
    </personinfo>
    <personinfo id="person_NS_e.1" depart="28.50" type="DEFAULT_PEDTYPE" speedFactor="0.91" duration="192.00" waitingTime="0.00" timeLoss="19.14" traveltime="192.00">
        <walk depart="28.50" departPos="100.00" arrival="220.50" arrivalPos="94.80" duration="192.00" routeLength="219.53" timeLoss="19.14" maxSpeed="1.27"/>
    </personinfo>
    <personinfo id="person_NW_diag.5" depart="88.00" type="DEFAULT_PEDTYPE" speedFactor="1.11" duration="138.00" waitingTime="0.00" timeLoss="14.14" traveltime="138.00">
        <walk depart="88.00" departPos="100.00" arrival="226.00" arrivalPos="93.20" duration="138.00" routeLength="190.90" timeLoss="14.14" maxSpeed="1.54"/>
    </personinfo>
    <personinfo id="person_SN_w.1" depart="52.50" type="DEFAULT_PEDTYPE" speedFactor="1.00" duration="174.00" waitingTime="0.00" timeLoss="17.56" traveltime="174.00">
        <walk depart="52.50" departPos="100.00" arrival="226.50" arrivalPos="94.80" duration="174.00" routeLength="217.89" timeLoss="17.56" maxSpeed="1.39"/>
    </personinfo>
    <personinfo id="person_WE_s.3" depart="62.00" type="DEFAULT_PEDTYPE" speedFactor="1.05" duration="171.50" waitingTime="0.00" timeLoss="27.43" traveltime="171.50">
        <walk depart="62.00" departPos="100.00" arrival="233.50" arrivalPos="93.20" duration="171.50" routeLength="209.26" timeLoss="27.43" maxSpeed="1.45"/>
    </personinfo>
    <personinfo id="person_NW_diag.7" depart="94.00" type="DEFAULT_PEDTYPE" speedFactor="1.04" duration="148.00" waitingTime="0.00" timeLoss="15.91" traveltime="148.00">
        <walk depart="94.00" departPos="100.00" arrival="242.00" arrivalPos="93.20" duration="148.00" routeLength="190.90" timeLoss="15.91" maxSpeed="1.45"/>
    </personinfo>
    <personinfo id="person_NW_diag.9" depart="107.50" type="DEFAULT_PEDTYPE" speedFactor="1.15" duration="136.00" waitingTime="0.00" timeLoss="16.68" traveltime="136.00">
        <walk depart="107.50" departPos="100.00" arrival="243.50" arrivalPos="93.20" duration="136.00" routeLength="190.90" timeLoss="16.68" maxSpeed="1.60"/>
    </personinfo>
    <tripinfo id="NS.9" depart="169.00" departLane="5_1_2" departPos="5.10" departSpeed="0.00" departDelay="0.25" arrival="243.50" arrivalLane="1_3_1" arrivalPos="189.60" arrivalSpeed="11.19" duration="74.50" routeLength="395.22" waitingTime="33.00" waitingCount="1" stopTime="0.00" timeLoss="39.02" rerouteNo="0" devices="tripinfo_NS.9 routing_NS.9" vType="DEFAULT_VEHTYPE" speedFactor="1.00" vaporized=""/>
    <tripinfo id="SE.3" depart="164.00" departLane="3_1_1" departPos="5.10" departSpeed="0.00" departDelay="0.37" arrival="244.00" arrivalLane="1_4_1" arrivalPos="186.40" arrivalSpeed="12.39" duration="80.00" routeLength="379.93" waitingTime="38.50" waitingCount="2" stopTime="0.00" timeLoss="48.38" rerouteNo="0" devices="tripinfo_SE.3 routing_SE.3" vType="DEFAULT_VEHTYPE" speedFactor="1.11" vaporized=""/>
    <tripinfo id="NS.10" depart="187.50" departLane="5_1_2" departPos="5.10" departSpeed="0.00" departDelay="0.00" arrival="244.50" arrivalLane="1_3_2" arrivalPos="189.60" arrivalSpeed="10.64" duration="57.00" routeLength="395.22" waitingTime="12.00" waitingCount="1" stopTime="0.00" timeLoss="19.55" rerouteNo="0" devices="tripinfo_NS.10 routing_NS.10" vType="DEFAULT_VEHTYPE" speedFactor="0.95" vaporized=""/>
    <personinfo id="person_NW_diag.10" depart="111.00" type="DEFAULT_PEDTYPE" speedFactor="1.14" duration="135.00" waitingTime="0.00" timeLoss="14.38" traveltime="135.00">
        <walk depart="111.00" departPos="100.00" arrival="246.00" arrivalPos="93.20" duration="135.00" routeLength="190.90" timeLoss="14.38" maxSpeed="1.58"/>
    </personinfo>
    <tripinfo id="SN.6" depart="164.00" departLane="3_1_2" departPos="5.10" departSpeed="0.00" departDelay="0.36" arrival="246.00" arrivalLane="1_5_1" arrivalPos="189.60" arrivalSpeed="9.67" duration="82.00" routeLength="395.22" waitingTime="34.50" waitingCount="1" stopTime="0.00" timeLoss="41.15" rerouteNo="0" devices="tripinfo_SN.6 routing_SN.6" vType="DEFAULT_VEHTYPE" speedFactor="0.86" vaporized=""/>
    <tripinfo id="NW.4" depart="200.00" departLane="5_1_1" departPos="5.10" departSpeed="0.00" departDelay="0.00" arrival="246.00" arrivalLane="1_2_1" arrivalPos="186.40" arrivalSpeed="10.53" duration="46.00" routeLength="382.62" waitingTime="0.00" waitingCount="0" stopTime="0.00" timeLoss="9.10" rerouteNo="0" devices="tripinfo_NW.4 routing_NW.4" vType="DEFAULT_VEHTYPE" speedFactor="0.94" vaporized=""/>
    <tripinfo id="NS.11" depart="206.50" departLane="5_1_2" departPos="5.10" departSpeed="0.00" departDelay="0.25" arrival="246.00" arrivalLane="1_3_2" arrivalPos="189.60" arrivalSpeed="12.70" duration="39.50" routeLength="395.22" waitingTime="0.00" waitingCount="0" stopTime="0.00" timeLoss="8.08" rerouteNo="0" devices="tripinfo_NS.11 routing_NS.11" vType="DEFAULT_VEHTYPE" speedFactor="1.13" vaporized=""/>
    <tripinfo id="SN.7" depart="191.00" departLane="3_1_1" departPos="5.10" departSpeed="0.00" departDelay="0.09" arrival="246.50" arrivalLane="1_5_2" arrivalPos="189.60" arrivalSpeed="10.98" duration="55.50" routeLength="395.22" waitingTime="7.00" waitingCount="1" stopTime="0.00" timeLoss="19.35" rerouteNo="0" devices="tripinfo_SN.7 routing_SN.7" vType="DEFAULT_VEHTYPE" speedFactor="0.98" vaporized=""/>
    <tripinfo id="WE.3" depart="150.00" departLane="2_1_1" departPos="5.10" departSpeed="0.00" departDelay="0.00" arrival="249.50" arrivalLane="1_4_1" arrivalPos="186.40" arrivalSpeed="13.00" duration="99.50" routeLength="395.13" waitingTime="60.00" waitingCount="1" stopTime="0.00" timeLoss="69.07" rerouteNo="0" devices="tripinfo_WE.3 routing_WE.3" vType="DEFAULT_VEHTYPE" speedFactor="1.17" vaporized=""/>