<?xml version="1.0" encoding="UTF-8"?>

<!-- generated on 2025-03-17 13:19:32 by Eclipse SUMO GUI Version 1.22.0
<sumoConfiguration xmlns:xsi="http://www.w3.org/2001/XMLSchema-instance" xsi:noNamespaceSchemaLocation="http://sumo.dlr.de/xsd/sumoConfiguration.xsd">

    <input>
        <net-file value="C:\Users\chris\PycharmProjects\UW_CET593_project2\environment/network_model/UW_intersection_pedestrian_X.net.xml"/>
        <route-files value="C:\Users\chris\PycharmProjects\UW_CET593_project2\environment/network_model/UW_IntersectionNormalDemand.rou.xml"/>
        <additional-files value="C:\Users\chris\PycharmProjects\UW_CET593_project2\environment/network_model/UW_intersection_Concurrent.add.xml"/>
    </input>

    <output>
        <queue-output value="C:\Users\chris\PycharmProjects\UW_CET593_project2\environment/simulation_data/UW_intersection/queues_multi_scale_symmetric_pene_20.xml"/>
        <tripinfo-output value="C:\Users\chris\PycharmProjects\UW_CET593_project2\environment/simulation_data/UW_intersection/tripinfo_multi_scale_symmetric_pene_20.xml"/>
    </output>

    <time>
        <begin value="0"/>
        <step-length value="0.5"/>
    </time>

    <processing>
        <waiting-time-memory value="1000"/>
    </processing>

    <report>
        <verbose value="true"/>
        <no-step-log value="true"/>
    </report>

    <traci_server>
        <remote-port value="62221"/>
    </traci_server>

    <gui_only>
        <start value="true"/>
    </gui_only>

</sumoConfiguration>
-->

<tripinfos xmlns:xsi="http://www.w3.org/2001/XMLSchema-instance" xsi:noNamespaceSchemaLocation="http://sumo.dlr.de/xsd/tripinfo_file.xsd">
    <tripinfo id="NS.0" depart="0.00" departLane="5_1_1" departPos="5.10" departSpeed="0.00" departDelay="0.00" arrival="37.00" arrivalLane="1_3_1" arrivalPos="189.60" arrivalSpeed="11.68" duration="37.00" routeLength="395.22" waitingTime="0.00" waitingCount="0" stopTime="0.00" timeLoss="3.57" rerouteNo="0" devices="tripinfo_NS.0 routing_NS.0" vType="DEFAULT_VEHTYPE" speedFactor="1.06" vaporized=""/>
    <tripinfo id="SN.0" depart="0.00" departLane="3_1_2" departPos="5.10" departSpeed="0.00" departDelay="0.00" arrival="37.50" arrivalLane="1_5_2" arrivalPos="189.60" arrivalSpeed="11.59" duration="37.50" routeLength="395.22" waitingTime="0.00" waitingCount="0" stopTime="0.00" timeLoss="3.59" rerouteNo="0" devices="tripinfo_SN.0 routing_SN.0" vType="DEFAULT_VEHTYPE" speedFactor="1.05" vaporized=""/>
    <tripinfo id="SE.0" depart="0.00" departLane="3_1_1" departPos="5.10" departSpeed="0.00" departDelay="0.00" arrival="38.00" arrivalLane="1_4_1" arrivalPos="186.40" arrivalSpeed="11.10" duration="38.00" routeLength="379.93" waitingTime="0.00" waitingCount="0" stopTime="0.00" timeLoss="2.75" rerouteNo="0" devices="tripinfo_SE.0 routing_SE.0" vType="DEFAULT_VEHTYPE" speedFactor="0.99" vaporized=""/>
    <tripinfo id="WE.0" depart="0.00" departLane="2_1_1" departPos="5.10" departSpeed="0.00" departDelay="0.00" arrival="47.50" arrivalLane="1_4_1" arrivalPos="186.40" arrivalSpeed="11.61" duration="47.50" routeLength="395.13" waitingTime="7.50" waitingCount="1" stopTime="0.00" timeLoss="15.07" rerouteNo="0" devices="tripinfo_WE.0 routing_WE.0" vType="DEFAULT_VEHTYPE" speedFactor="1.09" vaporized=""/>
    <tripinfo id="EN.0" depart="0.00" departLane="4_1_1" departPos="5.10" departSpeed="0.00" departDelay="0.00" arrival="48.50" arrivalLane="1_5_1" arrivalPos="189.60" arrivalSpeed="10.60" duration="48.50" routeLength="382.62" waitingTime="6.00" waitingCount="1" stopTime="0.00" timeLoss="12.77" rerouteNo="0" devices="tripinfo_EN.0 routing_EN.0" vType="DEFAULT_VEHTYPE" speedFactor="0.98" vaporized=""/>
    <tripinfo id="WN.0" depart="2.50" departLane="2_1_1" departPos="5.10" departSpeed="0.00" departDelay="2.50" arrival="49.00" arrivalLane="1_5_2" arrivalPos="189.60" arrivalSpeed="12.16" duration="46.50" routeLength="392.90" waitingTime="3.50" waitingCount="1" stopTime="0.00" timeLoss="14.52" rerouteNo="0" devices="tripinfo_WN.0 routing_WN.0" vType="DEFAULT_VEHTYPE" speedFactor="1.11" vaporized=""/>
    <tripinfo id="WS.0" depart="5.00" departLane="2_1_1" departPos="5.10" departSpeed="0.00" departDelay="5.00" arrival="50.50" arrivalLane="1_3_1" arrivalPos="189.60" arrivalSpeed="12.02" duration="45.50" routeLength="385.10" waitingTime="0.00" waitingCount="0" stopTime="0.00" timeLoss="12.99" rerouteNo="0" devices="tripinfo_WS.0 routing_WS.0" vType="DEFAULT_VEHTYPE" speedFactor="1.07" vaporized=""/>
    <tripinfo id="ES.0" depart="0.00" departLane="4_1_2" departPos="5.10" departSpeed="0.00" departDelay="0.00" arrival="52.50" arrivalLane="1_3_2" arrivalPos="189.60" arrivalSpeed="11.41" duration="52.50" routeLength="392.89" waitingTime="8.50" waitingCount="2" stopTime="0.00" timeLoss="18.61" rerouteNo="0" devices="tripinfo_ES.0 routing_ES.0" vType="DEFAULT_VEHTYPE" speedFactor="1.04" vaporized=""/>
    <tripinfo id="EW.0" depart="3.00" departLane="4_1_2" departPos="5.10" departSpeed="0.00" departDelay="3.00" arrival="54.50" arrivalLane="1_2_1" arrivalPos="186.40" arrivalSpeed="10.99" duration="51.50" routeLength="394.90" waitingTime="2.50" waitingCount="1" stopTime="0.00" timeLoss="15.39" rerouteNo="0" devices="tripinfo_EW.0 routing_EW.0" vType="DEFAULT_VEHTYPE" speedFactor="0.98" vaporized=""/>
    <tripinfo id="NS.1" depart="19.00" departLane="5_1_2" departPos="5.10" departSpeed="0.00" departDelay="0.25" arrival="63.00" arrivalLane="1_3_2" arrivalPos="189.60" arrivalSpeed="13.12" duration="44.00" routeLength="395.22" waitingTime="5.50" waitingCount="1" stopTime="0.00" timeLoss="14.68" rerouteNo="0" devices="tripinfo_NS.1 routing_NS.1" vType="DEFAULT_VEHTYPE" speedFactor="1.21" vaporized=""/>
    <tripinfo id="NE.0" depart="0.00" departLane="5_1_3" departPos="5.10" departSpeed="0.00" departDelay="0.00" arrival="70.00" arrivalLane="1_4_2" arrivalPos="186.40" arrivalSpeed="10.60" duration="70.00" routeLength="392.89" waitingTime="22.50" waitingCount="2" stopTime="0.00" timeLoss="32.80" rerouteNo="0" devices="tripinfo_NE.0 routing_NE.0" vType="DEFAULT_VEHTYPE" speedFactor="0.96" vaporized=""/>
    <tripinfo id="NW.0" depart="3.00" departLane="5_1_1" departPos="5.10" departSpeed="0.00" departDelay="3.00" arrival="73.00" arrivalLane="1_2_1" arrivalPos="186.40" arrivalSpeed="11.06" duration="70.00" routeLength="382.62" waitingTime="24.00" waitingCount="2" stopTime="0.00" timeLoss="34.81" rerouteNo="0" devices="tripinfo_NW.0 routing_NW.0" vType="DEFAULT_VEHTYPE" speedFactor="0.99" vaporized=""/>
    <tripinfo id="NS.2" depart="37.50" departLane="5_1_1" departPos="5.10" departSpeed="0.00" departDelay="0.00" arrival="76.50" arrivalLane="1_3_1" arrivalPos="189.60" arrivalSpeed="12.46" duration="39.00" routeLength="395.22" waitingTime="0.00" waitingCount="0" stopTime="0.00" timeLoss="7.74" rerouteNo="0" devices="tripinfo_NS.2 routing_NS.2" vType="DEFAULT_VEHTYPE" speedFactor="1.13" vaporized=""/>
    <tripinfo id="SW.0" depart="0.00" departLane="3_1_3" departPos="5.10" departSpeed="0.00" departDelay="0.00" arrival="77.50" arrivalLane="1_2_1" arrivalPos="186.40" arrivalSpeed="9.88" duration="77.50" routeLength="392.89" waitingTime="26.00" waitingCount="2" stopTime="0.00" timeLoss="38.23" rerouteNo="0" devices="tripinfo_SW.0 routing_SW.0" vType="DEFAULT_VEHTYPE" speedFactor="0.90" vaporized=""/>
    <tripinfo id="SN.1" depart="27.50" departLane="3_1_1" departPos="5.10" departSpeed="0.00" departDelay="0.23" arrival="94.50" arrivalLane="1_5_1" arrivalPos="189.60" arrivalSpeed="12.89" duration="67.00" routeLength="395.22" waitingTime="28.50" waitingCount="1" stopTime="0.00" timeLoss="35.76" rerouteNo="0" devices="tripinfo_SN.1 routing_SN.1" vType="DEFAULT_VEHTYPE" speedFactor="1.15" vaporized=""/>
    <tripinfo id="SN.2" depart="55.00" departLane="3_1_2" departPos="5.10" departSpeed="0.00" departDelay="0.45" arrival="95.50" arrivalLane="1_5_2" arrivalPos="189.60" arrivalSpeed="12.95" duration="40.50" routeLength="395.22" waitingTime="2.00" waitingCount="1" stopTime="0.00" timeLoss="9.62" rerouteNo="0" devices="tripinfo_SN.2 routing_SN.2" vType="DEFAULT_VEHTYPE" speedFactor="1.16" vaporized=""/>
    <tripinfo id="NW.1" depart="50.00" departLane="5_1_1" departPos="5.10" departSpeed="0.00" departDelay="0.00" arrival="97.00" arrivalLane="1_2_1" arrivalPos="186.40" arrivalSpeed="10.78" duration="47.00" routeLength="382.62" waitingTime="4.50" waitingCount="1" stopTime="0.00" timeLoss="11.05" rerouteNo="0" devices="tripinfo_NW.1 routing_NW.1" vType="DEFAULT_VEHTYPE" speedFactor="0.98" vaporized=""/>
    <tripinfo id="NS.3" depart="56.50" departLane="5_1_2" departPos="5.10" departSpeed="0.00" departDelay="0.25" arrival="101.00" arrivalLane="1_3_1" arrivalPos="189.60" arrivalSpeed="9.23" duration="44.50" routeLength="395.22" waitingTime="0.00" waitingCount="0" stopTime="0.00" timeLoss="4.08" rerouteNo="0" devices="tripinfo_NS.3 routing_NS.3" vType="DEFAULT_VEHTYPE" speedFactor="0.87" vaporized=""/>
    <tripinfo id="SE.1" depart="55.00" departLane="3_1_1" departPos="5.10" departSpeed="0.00" departDelay="0.46" arrival="101.50" arrivalLane="1_4_1" arrivalPos="186.40" arrivalSpeed="12.57" duration="46.50" routeLength="379.93" waitingTime="2.50" waitingCount="1" stopTime="0.00" timeLoss="15.64" rerouteNo="0" devices="tripinfo_SE.1 routing_SE.1" vType="DEFAULT_VEHTYPE" speedFactor="1.13" vaporized=""/>
    <tripinfo id="NS.4" depart="75.00" departLane="5_1_2" departPos="5.10" departSpeed="0.00" departDelay="0.00" arrival="122.00" arrivalLane="1_3_1" arrivalPos="189.60" arrivalSpeed="9.03" duration="47.00" routeLength="395.22" waitingTime="0.00" waitingCount="0" stopTime="0.00" timeLoss="3.79" rerouteNo="0" devices="tripinfo_NS.4 routing_NS.4" vType="DEFAULT_VEHTYPE" speedFactor="0.82" vaporized=""/>
    <tripinfo id="SN.3" depart="82.00" departLane="3_1_1" departPos="5.10" departSpeed="0.00" departDelay="0.18" arrival="123.00" arrivalLane="1_5_1" arrivalPos="189.60" arrivalSpeed="10.24" duration="41.00" routeLength="395.22" waitingTime="0.00" waitingCount="0" stopTime="0.00" timeLoss="3.15" rerouteNo="0" devices="tripinfo_SN.3 routing_SN.3" vType="DEFAULT_VEHTYPE" speedFactor="0.94" vaporized=""/>
    <tripinfo id="NS.5" depart="94.00" departLane="5_1_2" departPos="5.10" departSpeed="0.00" departDelay="0.25" arrival="133.50" arrivalLane="1_3_1" arrivalPos="189.60" arrivalSpeed="11.28" duration="39.50" routeLength="395.22" waitingTime="0.00" waitingCount="0" stopTime="0.00" timeLoss="4.30" rerouteNo="0" devices="tripinfo_NS.5 routing_NS.5" vType="DEFAULT_VEHTYPE" speedFactor="1.01" vaporized=""/>
    <tripinfo id="WE.1" depart="50.00" departLane="2_1_1" departPos="5.10" departSpeed="0.00" departDelay="0.00" arrival="144.50" arrivalLane="1_4_1" arrivalPos="186.40" arrivalSpeed="12.79" duration="94.50" routeLength="395.13" waitingTime="56.50" waitingCount="1" stopTime="0.00" timeLoss="64.31" rerouteNo="0" devices="tripinfo_WE.1 routing_WE.1" vType="DEFAULT_VEHTYPE" speedFactor="1.18" vaporized=""/>
    <personinfo id="person_NS_e.0" depart="5.50" type="DEFAULT_PEDTYPE" speedFactor="1.25" duration="141.50" waitingTime="0.00" timeLoss="15.07" traveltime="141.50">
        <walk depart="5.50" departPos="100.00" arrival="147.00" arrivalPos="94.80" duration="141.50" routeLength="219.53" timeLoss="15.07" maxSpeed="1.74"/>
    </personinfo>
    <tripinfo id="WS.1" depart="67.00" departLane="2_1_1" departPos="5.10" departSpeed="0.00" departDelay="0.33" arrival="151.00" arrivalLane="1_3_1" arrivalPos="189.60" arrivalSpeed="9.17" duration="84.00" routeLength="385.10" waitingTime="33.50" waitingCount="1" stopTime="0.00" timeLoss="43.56" rerouteNo="0" devices="tripinfo_WS.1 routing_WS.1" vType="DEFAULT_VEHTYPE" speedFactor="0.87" vaporized=""/>
    <tripinfo id="WE.2" depart="100.00" departLane="2_1_1" departPos="5.10" departSpeed="0.00" departDelay="0.00" arrival="151.00" arrivalLane="1_4_1" arrivalPos="186.40" arrivalSpeed="10.66" duration="51.00" routeLength="395.13" waitingTime="1.50" waitingCount="1" stopTime="0.00" timeLoss="13.78" rerouteNo="0" devices="tripinfo_WE.2 routing_WE.2" vType="DEFAULT_VEHTYPE" speedFactor="0.95" vaporized=""/>
    <personinfo id="person_NW_diag.0" depart="4.50" type="DEFAULT_PEDTYPE" speedFactor="0.98" duration="157.00" waitingTime="0.00" timeLoss="17.33" traveltime="157.00">
        <walk depart="4.50" departPos="100.00" arrival="161.50" arrivalPos="93.20" duration="157.00" routeLength="190.90" timeLoss="17.33" maxSpeed="1.37"/>
    </personinfo>
    <tripinfo id="SN.4" depart="109.50" departLane="3_1_2" departPos="5.10" departSpeed="0.00" departDelay="0.41" arrival="165.50" arrivalLane="1_5_1" arrivalPos="189.60" arrivalSpeed="9.89" duration="56.00" routeLength="395.22" waitingTime="9.50" waitingCount="1" stopTime="0.00" timeLoss="16.42" rerouteNo="0" devices="tripinfo_SN.4 routing_SN.4" vType="DEFAULT_VEHTYPE" speedFactor="0.90" vaporized=""/>
    <tripinfo id="NS.6" depart="112.50" departLane="5_1_2" departPos="5.10" departSpeed="0.00" departDelay="0.00" arrival="168.00" arrivalLane="1_3_2" arrivalPos="189.60" arrivalSpeed="10.65" duration="55.50" routeLength="395.22" waitingTime="10.00" waitingCount="1" stopTime="0.00" timeLoss="18.27" rerouteNo="0" devices="tripinfo_NS.6 routing_NS.6" vType="DEFAULT_VEHTYPE" speedFactor="0.96" vaporized=""/>
    <tripinfo id="NW.2" depart="100.00" departLane="5_1_1" departPos="5.10" departSpeed="0.00" departDelay="0.00" arrival="170.00" arrivalLane="1_2_1" arrivalPos="186.40" arrivalSpeed="9.75" duration="70.00" routeLength="382.62" waitingTime="24.00" waitingCount="2" stopTime="0.00" timeLoss="32.07" rerouteNo="0" devices="tripinfo_NW.2 routing_NW.2" vType="DEFAULT_VEHTYPE" speedFactor="0.93" vaporized=""/>
    <tripinfo id="SE.2" depart="109.50" departLane="3_1_1" departPos="5.10" departSpeed="0.00" departDelay="0.41" arrival="172.50" arrivalLane="1_4_1" arrivalPos="186.40" arrivalSpeed="10.97" duration="63.00" routeLength="379.93" waitingTime="19.00" waitingCount="2" stopTime="0.00" timeLoss="28.23" rerouteNo="0" devices="tripinfo_SE.2 routing_SE.2" vType="DEFAULT_VEHTYPE" speedFactor="1.00" vaporized=""/>
    <personinfo id="person_NW_diag.1" depart="20.50" type="DEFAULT_PEDTYPE" speedFactor="1.00" duration="153.50" waitingTime="0.00" timeLoss="15.49" traveltime="153.50">
        <walk depart="20.50" departPos="100.00" arrival="174.00" arrivalPos="93.20" duration="153.50" routeLength="190.90" timeLoss="15.49" maxSpeed="1.38"/>
    </personinfo>
    <tripinfo id="NS.7" depart="131.50" departLane="5_1_1" departPos="5.10" departSpeed="0.00" departDelay="0.25" arrival="174.00" arrivalLane="1_3_1" arrivalPos="189.60" arrivalSpeed="11.45" duration="42.50" routeLength="395.22" waitingTime="1.00" waitingCount="1" stopTime="0.00" timeLoss="7.93" rerouteNo="0" devices="tripinfo_NS.7 routing_NS.7" vType="DEFAULT_VEHTYPE" speedFactor="1.02" vaporized=""/>
    <personinfo id="person_SN_w.0" depart="3.00" type="DEFAULT_PEDTYPE" speedFactor="1.00" duration="174.00" waitingTime="0.00" timeLoss="17.48" traveltime="174.00">
        <walk depart="3.00" departPos="100.00" arrival="177.00" arrivalPos="94.80" duration="174.00" routeLength="217.89" timeLoss="17.48" maxSpeed="1.39"/>
    </personinfo>
    <personinfo id="person_SE_diag.0" depart="25.50" type="DEFAULT_PEDTYPE" speedFactor="0.96" duration="155.50" waitingTime="0.00" timeLoss="15.37" traveltime="155.50">
        <walk depart="25.50" departPos="100.00" arrival="181.00" arrivalPos="93.20" duration="155.50" routeLength="187.66" timeLoss="15.37" maxSpeed="1.34"/>
    </personinfo>
    <tripinfo id="EN.1" depart="150.00" departLane="4_1_1" departPos="5.10" departSpeed="0.00" departDelay="0.00" arrival="186.00" arrivalLane="1_5_1" arrivalPos="189.60" arrivalSpeed="13.00" duration="36.00" routeLength="382.62" waitingTime="0.00" waitingCount="0" stopTime="0.00" timeLoss="6.74" rerouteNo="0" devices="tripinfo_EN.1 routing_EN.1" vType="DEFAULT_VEHTYPE" speedFactor="1.18" vaporized=""/>
    <tripinfo id="NE.1" depart="150.00" departLane="5_1_3" departPos="5.10" departSpeed="0.00" departDelay="0.00" arrival="186.00" arrivalLane="1_4_2" arrivalPos="186.40" arrivalSpeed="12.43" duration="36.00" routeLength="392.89" waitingTime="0.00" waitingCount="0" stopTime="0.00" timeLoss="5.33" rerouteNo="0" devices="tripinfo_NE.1 routing_NE.1" vType="DEFAULT_VEHTYPE" speedFactor="1.16" vaporized=""/>
    <tripinfo id="NS.8" depart="150.00" departLane="5_1_2" departPos="5.10" departSpeed="0.00" departDelay="0.00" arrival="188.00" arrivalLane="1_3_1" arrivalPos="189.60" arrivalSpeed="11.43" duration="38.00" routeLength="395.22" waitingTime="0.00" waitingCount="0" stopTime="0.00" timeLoss="3.43" rerouteNo="0" devices="tripinfo_NS.8 routing_NS.8" vType="DEFAULT_VEHTYPE" speedFactor="1.02" vaporized=""/>
    <tripinfo id="NW.3" depart="150.00" departLane="5_1_1" departPos="5.10" departSpeed="0.00" departDelay="0.00" arrival="189.50" arrivalLane="1_2_1" arrivalPos="186.40" arrivalSpeed="10.80" duration="39.50" routeLength="382.62" waitingTime="0.00" waitingCount="0" stopTime="0.00" timeLoss="3.00" rerouteNo="0" devices="tripinfo_NW.3 routing_NW.3" vType="DEFAULT_VEHTYPE" speedFactor="0.96" vaporized=""/>
    <personinfo id="person_SE_diag.1" depart="44.00" type="DEFAULT_PEDTYPE" speedFactor="1.00" duration="150.50" waitingTime="0.00" timeLoss="14.87" traveltime="150.50">
        <walk depart="44.00" departPos="100.00" arrival="194.50" arrivalPos="93.20" duration="150.50" routeLength="187.66" timeLoss="14.87" maxSpeed="1.38"/>
    </personinfo>
    <personinfo id="person_SW_diag.0" depart="30.00" type="DEFAULT_PEDTYPE" speedFactor="1.30" duration="166.50" waitingTime="0.00" timeLoss="38.80" traveltime="166.50">
        <walk depart="30.00" departPos="100.00" arrival="196.50" arrivalPos="93.20" duration="166.50" routeLength="230.53" timeLoss="38.80" maxSpeed="1.81"/>
    </personinfo>
    <personinfo id="person_NW_diag.2" depart="32.00" type="DEFAULT_PEDTYPE" speedFactor="0.92" duration="167.00" waitingTime="0.00" timeLoss="18.00" traveltime="167.00">
        <walk depart="32.00" departPos="100.00" arrival="199.00" arrivalPos="93.20" duration="167.00" routeLength="190.90" timeLoss="18.00" maxSpeed="1.28"/>
    </personinfo>
    <personinfo id="person_NW_diag.3" depart="56.00" type="DEFAULT_PEDTYPE" speedFactor="1.06" duration="143.50" waitingTime="0.00" timeLoss="14.37" traveltime="143.50">
        <walk depart="56.00" departPos="100.00" arrival="199.50" arrivalPos="93.20" duration="143.50" routeLength="190.90" timeLoss="14.37" maxSpeed="1.48"/>
    </personinfo>
    <tripinfo id="SE.3" depart="164.00" departLane="3_1_1" departPos="5.10" departSpeed="0.00" departDelay="0.37" arrival="202.00" arrivalLane="1_4_1" arrivalPos="186.40" arrivalSpeed="12.39" duration="38.00" routeLength="379.93" waitingTime="0.00" waitingCount="0" stopTime="0.00" timeLoss="6.34" rerouteNo="0" devices="tripinfo_SE.3 routing_SE.3" vType="DEFAULT_VEHTYPE" speedFactor="1.11" vaporized=""/>
    <personinfo id="person_WE_s.2" depart="51.50" type="DEFAULT_PEDTYPE" speedFactor="1.20" duration="152.00" waitingTime="0.00" timeLoss="26.49" traveltime="152.00">
        <walk depart="51.50" departPos="100.00" arrival="203.50" arrivalPos="93.20" duration="152.00" routeLength="209.26" timeLoss="26.49" maxSpeed="1.67"/>
    </personinfo>
    <tripinfo id="SN.5" depart="136.50" departLane="3_1_2" departPos="5.10" departSpeed="0.00" departDelay="0.14" arrival="204.00" arrivalLane="1_5_1" arrivalPos="189.60" arrivalSpeed="10.35" duration="67.50" routeLength="395.22" waitingTime="23.50" waitingCount="1" stopTime="0.00" timeLoss="29.26" rerouteNo="0" devices="tripinfo_SN.5 routing_SN.5" vType="DEFAULT_VEHTYPE" speedFactor="0.93" vaporized=""/>
    <personinfo id="person_NW_diag.4" depart="67.00" type="DEFAULT_PEDTYPE" speedFactor="1.09" duration="139.50" waitingTime="0.00" timeLoss="13.63" traveltime="139.50">
        <walk depart="67.00" departPos="100.00" arrival="206.50" arrivalPos="93.20" duration="139.50" routeLength="190.90" timeLoss="13.63" maxSpeed="1.52"/>
    </personinfo>
    <tripinfo id="NS.9" depart="169.00" departLane="5_1_2" departPos="5.10" departSpeed="0.00" departDelay="0.25" arrival="208.00" arrivalLane="1_3_1" arrivalPos="189.60" arrivalSpeed="10.87" duration="39.00" routeLength="395.22" waitingTime="0.00" waitingCount="0" stopTime="0.00" timeLoss="3.38" rerouteNo="0" devices="tripinfo_NS.9 routing_NS.9" vType="DEFAULT_VEHTYPE" speedFactor="1.00" vaporized=""/>
    <tripinfo id="SN.6" depart="164.00" departLane="3_1_2" departPos="5.10" departSpeed="0.00" departDelay="0.36" arrival="208.50" arrivalLane="1_5_1" arrivalPos="189.60" arrivalSpeed="9.29" duration="44.50" routeLength="395.22" waitingTime="0.00" waitingCount="0" stopTime="0.00" timeLoss="3.54" rerouteNo="0" devices="tripinfo_SN.6 routing_SN.6" vType="DEFAULT_VEHTYPE" speedFactor="0.86" vaporized=""/>
    <personinfo id="person_WE_n.1" depart="31.50" type="DEFAULT_PEDTYPE" speedFactor="1.12" duration="177.50" waitingTime="0.00" timeLoss="33.31" traveltime="177.50">
        <walk depart="31.50" departPos="100.00" arrival="209.00" arrivalPos="93.20" duration="177.50" routeLength="224.16" timeLoss="33.31" maxSpeed="1.55"/>
    </personinfo>
    <personinfo id="person_WE_s.1" depart="43.50" type="DEFAULT_PEDTYPE" speedFactor="1.08" duration="166.00" waitingTime="0.00" timeLoss="26.84" traveltime="166.00">
        <walk depart="43.50" departPos="100.00" arrival="209.50" arrivalPos="93.20" duration="166.00" routeLength="209.26" timeLoss="26.84" maxSpeed="1.50"/>
    </personinfo>
    <personinfo id="person_EW_n.1" depart="17.50" type="DEFAULT_PEDTYPE" speedFactor="1.09" duration="193.50" waitingTime="0.00" timeLoss="54.54" traveltime="193.50">
        <walk depart="17.50" departPos="100.00" arrival="211.00" arrivalPos="93.20" duration="193.50" routeLength="210.56" timeLoss="54.54" maxSpeed="1.52"/>
    </personinfo>
    <personinfo id="person_NE_diag.1" depart="28.50" type="DEFAULT_PEDTYPE" speedFactor="1.02" duration="185.00" waitingTime="0.00" timeLoss="26.06" traveltime="185.00">
        <walk depart="28.50" departPos="100.00" arrival="213.50" arrivalPos="93.20" duration="185.00" routeLength="225.71" timeLoss="26.06" maxSpeed="1.42"/>
    </personinfo>
    <personinfo id="person_WE_s.0" depart="2.00" type="DEFAULT_PEDTYPE" speedFactor="0.98" duration="217.00" waitingTime="0.00" timeLoss="62.50" traveltime="217.00">
        <walk depart="2.00" departPos="100.00" arrival="219.00" arrivalPos="93.20" duration="217.00" routeLength="209.26" timeLoss="62.50" maxSpeed="1.35"/>
    </personinfo>
    <personinfo id="person_WE_n.0" depart="10.00" type="DEFAULT_PEDTYPE" speedFactor="1.00" duration="209.00" waitingTime="0.00" timeLoss="47.12" traveltime="209.00">
        <walk depart="10.00" departPos="100.00" arrival="219.00" arrivalPos="93.20" duration="209.00" routeLength="224.16" timeLoss="47.12" maxSpeed="1.38"/>
    </personinfo>
    <personinfo id="person_WE_n.2" depart="31.50" type="DEFAULT_PEDTYPE" speedFactor="1.00" duration="188.50" waitingTime="0.00" timeLoss="26.77" traveltime="188.50">
        <walk depart="31.50" departPos="100.00" arrival="220.00" arrivalPos="93.20" duration="188.50" routeLength="224.16" timeLoss="26.77" maxSpeed="1.39"/>
    </personinfo>
    <personinfo id="person_WE_n.3" depart="37.00" type="DEFAULT_PEDTYPE" speedFactor="0.99" duration="183.50" waitingTime="0.00" timeLoss="19.98" traveltime="183.50">
        <walk depart="37.00" departPos="100.00" arrival="220.50" arrivalPos="93.20" duration="183.50" routeLength="224.16" timeLoss="19.98" maxSpeed="1.37"/>
    </personinfo>
    <personinfo id="person_NS_e.2" depart="45.50" type="DEFAULT_PEDTYPE" speedFactor="1.13" duration="175.50" waitingTime="0.00" timeLoss="35.31" traveltime="175.50">
        <walk depart="45.50" departPos="100.00" arrival="221.00" arrivalPos="94.80" duration="175.50" routeLength="219.53" timeLoss="35.31" maxSpeed="1.57"/>
    </personinfo>
    <personinfo id="person_EW_n.0" depart="14.50" type="DEFAULT_PEDTYPE" speedFactor="0.95" duration="209.00" waitingTime="0.00" timeLoss="49.59" traveltime="209.00">
        <walk depart="14.50" departPos="100.00" arrival="223.50" arrivalPos="93.20" duration="209.00" routeLength="210.56" timeLoss="49.59" maxSpeed="1.32"/>
    </personinfo>
    <personinfo id="person_NW_diag.5" depart="88.00" type="DEFAULT_PEDTYPE" speedFactor="1.11" duration="138.50" waitingTime="0.00" timeLoss="14.64" traveltime="138.50">
        <walk depart="88.00" departPos="100.00" arrival="226.50" arrivalPos="93.20" duration="138.50" routeLength="190.90" timeLoss="14.64" maxSpeed="1.54"/>
    </personinfo>
    <personinfo id="person_NE_diag.0" depart="11.50" type="DEFAULT_PEDTYPE" speedFactor="0.89" duration="215.50" waitingTime="0.00" timeLoss="32.92" traveltime="215.50">
        <walk depart="11.50" departPos="100.00" arrival="227.00" arrivalPos="93.20" duration="215.50" routeLength="225.71" timeLoss="32.92" maxSpeed="1.24"/>
    </personinfo>
    <personinfo id="person_SN_w.1" depart="52.50" type="DEFAULT_PEDTYPE" speedFactor="1.00" duration="175.50" waitingTime="0.00" timeLoss="19.06" traveltime="175.50">
        <walk depart="52.50" departPos="100.00" arrival="228.00" arrivalPos="94.80" duration="175.50" routeLength="217.89" timeLoss="19.06" maxSpeed="1.39"/>
    </personinfo>
    <tripinfo id="NS.10" depart="187.50" departLane="5_1_2" departPos="5.10" departSpeed="0.00" departDelay="0.00" arrival="228.50" arrivalLane="1_3_1" arrivalPos="189.60" arrivalSpeed="10.22" duration="41.00" routeLength="395.22" waitingTime="0.00" waitingCount="0" stopTime="0.00" timeLoss="3.76" rerouteNo="0" devices="tripinfo_NS.10 routing_NS.10" vType="DEFAULT_VEHTYPE" speedFactor="0.95" vaporized=""/>
    <tripinfo id="SN.7" depart="191.00" departLane="3_1_1" departPos="5.10" departSpeed="0.00" departDelay="0.09" arrival="229.50" arrivalLane="1_5_1" arrivalPos="189.60" arrivalSpeed="10.98" duration="38.50" routeLength="395.22" waitingTime="0.00" waitingCount="0" stopTime="0.00" timeLoss="2.42" rerouteNo="0" devices="tripinfo_SN.7 routing_SN.7" vType="DEFAULT_VEHTYPE" speedFactor="0.98" vaporized=""/>
    <personinfo id="person_SN_e.0" depart="43.00" type="DEFAULT_PEDTYPE" speedFactor="1.03" duration="188.50" waitingTime="0.00" timeLoss="42.31" traveltime="188.50">
        <walk depart="43.00" departPos="100.00" arrival="231.50" arrivalPos="94.80" duration="188.50" routeLength="209.13" timeLoss="42.31" maxSpeed="1.43"/>
    </personinfo>
    <personinfo id="person_EW_n.2" depart="18.00" type="DEFAULT_PEDTYPE" speedFactor="0.86" duration="214.50" waitingTime="0.00" timeLoss="38.38" traveltime="214.50">
        <walk depart="18.00" departPos="100.00" arrival="232.50" arrivalPos="93.20" duration="214.50" routeLength="210.56" timeLoss="38.38" maxSpeed="1.20"/>
    </personinfo>
    <personinfo id="person_EW_n.3" depart="50.50" type="DEFAULT_PEDTYPE" speedFactor="0.91" duration="185.50" waitingTime="0.00" timeLoss="18.26" traveltime="185.50">
        <walk depart="50.50" departPos="100.00" arrival="236.00" arrivalPos="93.20" duration="185.50" routeLength="210.56" timeLoss="18.26" maxSpeed="1.26"/>
    </personinfo>
    <personinfo id="person_NS_e.1" depart="28.50" type="DEFAULT_PEDTYPE" speedFactor="0.91" duration="211.50" waitingTime="0.00" timeLoss="38.64" traveltime="211.50">
        <walk depart="28.50" departPos="100.00" arrival="240.00" arrivalPos="94.80" duration="211.50" routeLength="219.53" timeLoss="38.64" maxSpeed="1.27"/>
    </personinfo>
    <personinfo id="person_NW_diag.7" depart="94.00" type="DEFAULT_PEDTYPE" speedFactor="1.04" duration="148.50" waitingTime="0.00" timeLoss="16.41" traveltime="148.50">
        <walk depart="94.00" departPos="100.00" arrival="242.50" arrivalPos="93.20" duration="148.50" routeLength="190.90" timeLoss="16.41" maxSpeed="1.45"/>
    </personinfo>
    <personinfo id="person_NW_diag.9" depart="107.50" type="DEFAULT_PEDTYPE" speedFactor="1.15" duration="135.50" waitingTime="0.00" timeLoss="16.18" traveltime="135.50">
        <walk depart="107.50" departPos="100.00" arrival="243.00" arrivalPos="93.20" duration="135.50" routeLength="190.90" timeLoss="16.18" maxSpeed="1.60"/>
    </personinfo>
    <personinfo id="person_NS_e.3" depart="58.50" type="DEFAULT_PEDTYPE" speedFactor="0.98" duration="187.00" waitingTime="0.00" timeLoss="26.34" traveltime="187.00">
        <walk depart="58.50" departPos="100.00" arrival="245.50" arrivalPos="94.80" duration="187.00" routeLength="219.53" timeLoss="26.34" maxSpeed="1.37"/>
    </personinfo>
    <personinfo id="person_NW_diag.10" depart="111.00" type="DEFAULT_PEDTYPE" speedFactor="1.14" duration="135.50" waitingTime="0.00" timeLoss="14.88" traveltime="135.50">
        <walk depart="111.00" departPos="100.00" arrival="246.50" arrivalPos="93.20" duration="135.50" routeLength="190.90" timeLoss="14.88" maxSpeed="1.58"/>
    </personinfo>
    <tripinfo id="EW.1" depart="150.00" departLane="4_1_2" departPos="5.10" departSpeed="0.00" departDelay="0.00" arrival="247.00" arrivalLane="1_2_1" arrivalPos="186.40" arrivalSpeed="9.74" duration="97.00" routeLength="394.90" waitingTime="50.50" waitingCount="1" stopTime="0.00" timeLoss="57.20" rerouteNo="0" devices="tripinfo_EW.1 routing_EW.1" vType="DEFAULT_VEHTYPE" speedFactor="0.89" vaporized=""/>
    <tripinfo id="WS.2" depart="133.50" departLane="2_1_1" departPos="5.10" departSpeed="0.00" departDelay="0.17" arrival="254.50" arrivalLane="1_3_1" arrivalPos="189.60" arrivalSpeed="11.31" duration="121.00" routeLength="385.10" waitingTime="72.50" waitingCount="2" stopTime="0.00" timeLoss="86.06" rerouteNo="0" devices="tripinfo_WS.2 routing_WS.2" vType="DEFAULT_VEHTYPE" speedFactor="1.01" vaporized=""/>