<?xml version="1.0" encoding="UTF-8"?>

<!-- generated on 2025-03-17 17:18:47 by Eclipse SUMO GUI Version 1.22.0
<sumoConfiguration xmlns:xsi="http://www.w3.org/2001/XMLSchema-instance" xsi:noNamespaceSchemaLocation="http://sumo.dlr.de/xsd/sumoConfiguration.xsd">

    <input>
        <net-file value="C:\Users\chris\PycharmProjects\UW_CET593_project2\environment/network_model/UW_intersection_pedestrian_X.net.xml"/>
        <route-files value="C:\Users\chris\PycharmProjects\UW_CET593_project2\environment/network_model/UW_IntersectionDecreaseDemand.rou.xml"/>
        <additional-files value="C:\Users\chris\PycharmProjects\UW_CET593_project2\environment/network_model/UW_intersection_signalActuated.add.xml"/>
    </input>

    <output>
        <queue-output value="C:\Users\chris\PycharmProjects\UW_CET593_project2\environment/simulation_data/UW_intersection/queues_actuated_symmetric_pene_20.xml"/>
        <tripinfo-output value="C:\Users\chris\PycharmProjects\UW_CET593_project2\environment/simulation_data/UW_intersection/tripinfo_actuated_symmetric_pene_20.xml"/>
    </output>

    <time>
        <begin value="0"/>
        <step-length value="0.5"/>
    </time>

    <processing>
        <waiting-time-memory value="1000"/>
    </processing>

    <report>
        <verbose value="true"/>
        <no-step-log value="true"/>
    </report>

    <traci_server>
        <remote-port value="64793"/>
    </traci_server>

    <gui_only>
        <start value="true"/>
    </gui_only>

</sumoConfiguration>
-->

<tripinfos xmlns:xsi="http://www.w3.org/2001/XMLSchema-instance" xsi:noNamespaceSchemaLocation="http://sumo.dlr.de/xsd/tripinfo_file.xsd">
    <tripinfo id="NE.0" depart="0.00" departLane="5_1_3" departPos="5.10" departSpeed="0.00" departDelay="0.00" arrival="39.50" arrivalLane="1_4_2" arrivalPos="186.40" arrivalSpeed="13.87" duration="39.50" routeLength="392.89" waitingTime="1.00" waitingCount="1" stopTime="0.00" timeLoss="10.66" rerouteNo="0" devices="tripinfo_NE.0 routing_NE.0" vType="DEFAULT_VEHTYPE" speedFactor="1.24" vaporized=""/>
    <tripinfo id="SW.0" depart="0.00" departLane="3_1_3" departPos="5.10" departSpeed="0.00" departDelay="0.00" arrival="40.50" arrivalLane="1_2_1" arrivalPos="186.40" arrivalSpeed="12.48" duration="40.50" routeLength="392.89" waitingTime="0.50" waitingCount="1" stopTime="0.00" timeLoss="9.30" rerouteNo="0" devices="tripinfo_SW.0 routing_SW.0" vType="DEFAULT_VEHTYPE" speedFactor="1.14" vaporized=""/>
    <tripinfo id="NS.0" depart="0.00" departLane="5_1_1" departPos="5.10" departSpeed="0.00" departDelay="0.00" arrival="44.00" arrivalLane="1_3_1" arrivalPos="189.60" arrivalSpeed="11.97" duration="44.00" routeLength="395.22" waitingTime="4.00" waitingCount="1" stopTime="0.00" timeLoss="11.86" rerouteNo="0" devices="tripinfo_NS.0 routing_NS.0" vType="DEFAULT_VEHTYPE" speedFactor="1.11" vaporized=""/>
    <tripinfo id="SE.0" depart="0.00" departLane="3_1_1" departPos="5.10" departSpeed="0.00" departDelay="0.00" arrival="44.50" arrivalLane="1_4_1" arrivalPos="186.40" arrivalSpeed="10.63" duration="44.50" routeLength="379.93" waitingTime="3.00" waitingCount="1" stopTime="0.00" timeLoss="9.47" rerouteNo="0" devices="tripinfo_SE.0 routing_SE.0" vType="DEFAULT_VEHTYPE" speedFactor="0.99" vaporized=""/>
    <tripinfo id="NW.0" depart="3.00" departLane="5_1_1" departPos="5.10" departSpeed="0.00" departDelay="3.00" arrival="45.50" arrivalLane="1_2_1" arrivalPos="186.40" arrivalSpeed="12.21" duration="42.50" routeLength="382.62" waitingTime="0.00" waitingCount="0" stopTime="0.00" timeLoss="10.40" rerouteNo="0" devices="tripinfo_NW.0 routing_NW.0" vType="DEFAULT_VEHTYPE" speedFactor="1.09" vaporized=""/>
    <tripinfo id="SN.0" depart="0.00" departLane="3_1_2" departPos="5.10" departSpeed="0.00" departDelay="0.00" arrival="45.50" arrivalLane="1_5_1" arrivalPos="189.60" arrivalSpeed="11.51" duration="45.50" routeLength="395.22" waitingTime="3.50" waitingCount="1" stopTime="0.00" timeLoss="11.11" rerouteNo="0" devices="tripinfo_SN.0 routing_SN.0" vType="DEFAULT_VEHTYPE" speedFactor="1.04" vaporized=""/>
    <tripinfo id="EN.0" depart="0.00" departLane="4_1_1" departPos="5.10" departSpeed="0.00" departDelay="0.00" arrival="52.00" arrivalLane="1_5_1" arrivalPos="189.60" arrivalSpeed="11.79" duration="52.00" routeLength="382.62" waitingTime="11.50" waitingCount="1" stopTime="0.00" timeLoss="19.18" rerouteNo="0" devices="tripinfo_EN.0 routing_EN.0" vType="DEFAULT_VEHTYPE" speedFactor="1.06" vaporized=""/>
    <tripinfo id="WN.0" depart="2.50" departLane="2_1_1" departPos="5.10" departSpeed="0.00" departDelay="2.50" arrival="54.00" arrivalLane="1_5_2" arrivalPos="189.60" arrivalSpeed="12.87" duration="51.50" routeLength="392.90" waitingTime="8.00" waitingCount="1" stopTime="0.00" timeLoss="20.35" rerouteNo="0" devices="tripinfo_WN.0 routing_WN.0" vType="DEFAULT_VEHTYPE" speedFactor="1.15" vaporized=""/>
    <tripinfo id="WE.0" depart="0.00" departLane="2_1_1" departPos="5.10" departSpeed="0.00" departDelay="0.00" arrival="54.50" arrivalLane="1_4_1" arrivalPos="186.40" arrivalSpeed="10.52" duration="54.50" routeLength="395.13" waitingTime="11.00" waitingCount="1" stopTime="0.00" timeLoss="17.76" rerouteNo="0" devices="tripinfo_WE.0 routing_WE.0" vType="DEFAULT_VEHTYPE" speedFactor="0.97" vaporized=""/>
    <tripinfo id="ES.0" depart="0.00" departLane="4_1_2" departPos="5.10" departSpeed="0.00" departDelay="0.00" arrival="57.50" arrivalLane="1_3_2" arrivalPos="189.60" arrivalSpeed="10.92" duration="57.50" routeLength="392.89" waitingTime="12.50" waitingCount="2" stopTime="0.00" timeLoss="22.66" rerouteNo="0" devices="tripinfo_ES.0 routing_ES.0" vType="DEFAULT_VEHTYPE" speedFactor="1.02" vaporized=""/>
    <tripinfo id="WS.0" depart="5.00" departLane="2_1_1" departPos="5.10" departSpeed="0.00" departDelay="5.00" arrival="59.00" arrivalLane="1_3_1" arrivalPos="189.60" arrivalSpeed="10.10" duration="54.00" routeLength="385.10" waitingTime="5.00" waitingCount="1" stopTime="0.00" timeLoss="15.60" rerouteNo="0" devices="tripinfo_WS.0 routing_WS.0" vType="DEFAULT_VEHTYPE" speedFactor="0.91" vaporized=""/>
    <tripinfo id="NS.1" depart="23.50" departLane="5_1_2" departPos="5.10" departSpeed="0.00" departDelay="0.06" arrival="68.50" arrivalLane="1_3_1" arrivalPos="189.60" arrivalSpeed="10.48" duration="45.00" routeLength="395.22" waitingTime="0.50" waitingCount="1" stopTime="0.00" timeLoss="8.15" rerouteNo="0" devices="tripinfo_NS.1 routing_NS.1" vType="DEFAULT_VEHTYPE" speedFactor="0.96" vaporized=""/>
    <tripinfo id="EW.0" depart="3.00" departLane="4_1_2" departPos="5.10" departSpeed="0.00" departDelay="3.00" arrival="76.00" arrivalLane="1_2_1" arrivalPos="186.40" arrivalSpeed="10.46" duration="73.00" routeLength="394.90" waitingTime="23.50" waitingCount="2" stopTime="0.00" timeLoss="36.55" rerouteNo="0" devices="tripinfo_EW.0 routing_EW.0" vType="DEFAULT_VEHTYPE" speedFactor="0.97" vaporized=""/>
    <tripinfo id="SN.1" depart="34.50" departLane="3_1_1" departPos="5.10" departSpeed="0.00" departDelay="0.41" arrival="87.00" arrivalLane="1_5_1" arrivalPos="189.60" arrivalSpeed="11.12" duration="52.50" routeLength="395.22" waitingTime="10.50" waitingCount="1" stopTime="0.00" timeLoss="18.15" rerouteNo="0" devices="tripinfo_SN.1 routing_SN.1" vType="DEFAULT_VEHTYPE" speedFactor="1.04" vaporized=""/>
    <tripinfo id="NS.2" depart="47.00" departLane="5_1_1" departPos="5.10" departSpeed="0.00" departDelay="0.12" arrival="90.50" arrivalLane="1_3_1" arrivalPos="189.60" arrivalSpeed="9.32" duration="43.50" routeLength="395.22" waitingTime="0.00" waitingCount="0" stopTime="0.00" timeLoss="3.34" rerouteNo="0" devices="tripinfo_NS.2 routing_NS.2" vType="DEFAULT_VEHTYPE" speedFactor="0.88" vaporized=""/>
    <tripinfo id="NW.1" depart="62.50" departLane="5_1_1" departPos="5.10" departSpeed="0.00" departDelay="0.00" arrival="106.50" arrivalLane="1_2_1" arrivalPos="186.40" arrivalSpeed="11.70" duration="44.00" routeLength="382.62" waitingTime="4.50" waitingCount="1" stopTime="0.00" timeLoss="12.13" rerouteNo="0" devices="tripinfo_NW.1 routing_NW.1" vType="DEFAULT_VEHTYPE" speedFactor="1.10" vaporized=""/>
    <tripinfo id="SN.2" depart="68.50" departLane="3_1_2" departPos="5.10" departSpeed="0.00" departDelay="0.32" arrival="107.00" arrivalLane="1_5_1" arrivalPos="189.60" arrivalSpeed="10.78" duration="38.50" routeLength="395.22" waitingTime="0.00" waitingCount="0" stopTime="0.00" timeLoss="3.31" rerouteNo="0" devices="tripinfo_SN.2 routing_SN.2" vType="DEFAULT_VEHTYPE" speedFactor="1.01" vaporized=""/>
    <tripinfo id="SE.1" depart="68.50" departLane="3_1_1" departPos="5.10" departSpeed="0.00" departDelay="0.32" arrival="109.50" arrivalLane="1_4_1" arrivalPos="186.40" arrivalSpeed="10.35" duration="41.00" routeLength="379.93" waitingTime="0.00" waitingCount="0" stopTime="0.00" timeLoss="4.60" rerouteNo="0" devices="tripinfo_SE.1 routing_SE.1" vType="DEFAULT_VEHTYPE" speedFactor="0.95" vaporized=""/>
    <tripinfo id="NS.3" depart="70.50" departLane="5_1_2" departPos="5.10" departSpeed="0.00" departDelay="0.19" arrival="110.50" arrivalLane="1_3_1" arrivalPos="189.60" arrivalSpeed="10.74" duration="40.00" routeLength="395.22" waitingTime="0.00" waitingCount="0" stopTime="0.00" timeLoss="3.56" rerouteNo="0" devices="tripinfo_NS.3 routing_NS.3" vType="DEFAULT_VEHTYPE" speedFactor="0.97" vaporized=""/>
    <tripinfo id="WE.1" depart="62.50" departLane="2_1_1" departPos="5.10" departSpeed="0.00" departDelay="0.00" arrival="117.00" arrivalLane="1_4_1" arrivalPos="186.40" arrivalSpeed="12.04" duration="54.50" routeLength="395.13" waitingTime="14.50" waitingCount="1" stopTime="0.00" timeLoss="23.02" rerouteNo="0" devices="tripinfo_WE.1 routing_WE.1" vType="DEFAULT_VEHTYPE" speedFactor="1.13" vaporized=""/>
    <tripinfo id="NS.4" depart="94.00" departLane="5_1_1" departPos="5.10" departSpeed="0.00" departDelay="0.25" arrival="132.00" arrivalLane="1_3_1" arrivalPos="189.60" arrivalSpeed="11.16" duration="38.00" routeLength="395.22" waitingTime="0.00" waitingCount="0" stopTime="0.00" timeLoss="3.48" rerouteNo="0" devices="tripinfo_NS.4 routing_NS.4" vType="DEFAULT_VEHTYPE" speedFactor="1.02" vaporized=""/>
    <tripinfo id="WS.1" depart="83.50" departLane="2_1_1" departPos="5.10" departSpeed="0.00" departDelay="0.17" arrival="141.50" arrivalLane="1_3_1" arrivalPos="189.60" arrivalSpeed="10.61" duration="58.00" routeLength="385.10" waitingTime="15.00" waitingCount="1" stopTime="0.00" timeLoss="22.63" rerouteNo="0" devices="tripinfo_WS.1 routing_WS.1" vType="DEFAULT_VEHTYPE" speedFactor="0.99" vaporized=""/>
    <tripinfo id="SN.3" depart="102.50" departLane="3_1_1" departPos="5.10" departSpeed="0.00" departDelay="0.23" arrival="154.50" arrivalLane="1_5_1" arrivalPos="189.60" arrivalSpeed="11.21" duration="52.00" routeLength="395.22" waitingTime="8.50" waitingCount="1" stopTime="0.00" timeLoss="16.65" rerouteNo="0" devices="tripinfo_SN.3 routing_SN.3" vType="DEFAULT_VEHTYPE" speedFactor="1.01" vaporized=""/>
    <tripinfo id="NS.5" depart="117.50" departLane="5_1_1" departPos="5.10" departSpeed="0.00" departDelay="0.31" arrival="157.00" arrivalLane="1_3_1" arrivalPos="189.60" arrivalSpeed="10.75" duration="39.50" routeLength="395.22" waitingTime="0.00" waitingCount="0" stopTime="0.00" timeLoss="3.22" rerouteNo="0" devices="tripinfo_NS.5 routing_NS.5" vType="DEFAULT_VEHTYPE" speedFactor="0.97" vaporized=""/>
    <tripinfo id="WE.2" depart="125.00" departLane="2_1_1" departPos="5.10" departSpeed="0.00" departDelay="0.00" arrival="163.50" arrivalLane="1_4_1" arrivalPos="186.40" arrivalSpeed="12.20" duration="38.50" routeLength="395.13" waitingTime="0.00" waitingCount="0" stopTime="0.00" timeLoss="7.30" rerouteNo="0" devices="tripinfo_WE.2 routing_WE.2" vType="DEFAULT_VEHTYPE" speedFactor="1.14" vaporized=""/>
    <personinfo id="person_SE_diag.0" depart="2.00" type="DEFAULT_PEDTYPE" speedFactor="0.90" duration="166.00" waitingTime="0.00" timeLoss="16.12" traveltime="166.00">
        <walk depart="2.00" departPos="100.00" arrival="168.00" arrivalPos="93.20" duration="166.00" routeLength="187.66" timeLoss="16.12" maxSpeed="1.25"/>
    </personinfo>
    <tripinfo id="NW.2" depart="125.00" departLane="5_1_1" departPos="5.10" departSpeed="0.00" departDelay="0.00" arrival="176.00" arrivalLane="1_2_1" arrivalPos="186.40" arrivalSpeed="11.40" duration="51.00" routeLength="382.62" waitingTime="10.00" waitingCount="1" stopTime="0.00" timeLoss="17.64" rerouteNo="0" devices="tripinfo_NW.2 routing_NW.2" vType="DEFAULT_VEHTYPE" speedFactor="1.04" vaporized=""/>
    <personinfo id="person_EW_n.0" depart="15.50" type="DEFAULT_PEDTYPE" speedFactor="1.17" duration="161.00" waitingTime="0.00" timeLoss="31.55" traveltime="161.00">
        <walk depart="15.50" departPos="100.00" arrival="176.50" arrivalPos="93.20" duration="161.00" routeLength="210.56" timeLoss="31.55" maxSpeed="1.63"/>
    </personinfo>
    <tripinfo id="SN.4" depart="136.50" departLane="3_1_2" departPos="5.10" departSpeed="0.00" departDelay="0.14" arrival="178.00" arrivalLane="1_5_2" arrivalPos="189.60" arrivalSpeed="10.20" duration="41.50" routeLength="395.22" waitingTime="0.00" waitingCount="0" stopTime="0.00" timeLoss="3.32" rerouteNo="0" devices="tripinfo_SN.4 routing_SN.4" vType="DEFAULT_VEHTYPE" speedFactor="0.93" vaporized=""/>
    <personinfo id="person_WE_n.0" depart="12.50" type="DEFAULT_PEDTYPE" speedFactor="1.09" duration="169.00" waitingTime="0.00" timeLoss="21.19" traveltime="169.00">
        <walk depart="12.50" departPos="100.00" arrival="181.50" arrivalPos="93.20" duration="169.00" routeLength="224.16" timeLoss="21.19" maxSpeed="1.52"/>
    </personinfo>
    <tripinfo id="SE.2" depart="136.50" departLane="3_1_1" departPos="5.10" departSpeed="0.00" departDelay="0.14" arrival="185.50" arrivalLane="1_4_1" arrivalPos="186.40" arrivalSpeed="11.86" duration="49.00" routeLength="379.93" waitingTime="9.00" waitingCount="1" stopTime="0.00" timeLoss="17.65" rerouteNo="0" devices="tripinfo_SE.2 routing_SE.2" vType="DEFAULT_VEHTYPE" speedFactor="1.11" vaporized=""/>
    <personinfo id="person_WE_s.0" depart="2.00" type="DEFAULT_PEDTYPE" speedFactor="0.98" duration="187.50" waitingTime="0.00" timeLoss="33.00" traveltime="187.50">
        <walk depart="2.00" departPos="100.00" arrival="189.50" arrivalPos="93.20" duration="187.50" routeLength="209.26" timeLoss="33.00" maxSpeed="1.35"/>
    </personinfo>
    <personinfo id="person_NS_e.0" depart="12.50" type="DEFAULT_PEDTYPE" speedFactor="0.96" duration="190.50" waitingTime="0.00" timeLoss="25.11" traveltime="190.50">
        <walk depart="12.50" departPos="100.00" arrival="203.00" arrivalPos="94.80" duration="190.50" routeLength="219.53" timeLoss="25.11" maxSpeed="1.33"/>
    </personinfo>
    <personinfo id="person_EW_n.1" depart="29.00" type="DEFAULT_PEDTYPE" speedFactor="1.04" duration="179.50" waitingTime="0.00" timeLoss="33.73" traveltime="179.50">
        <walk depart="29.00" departPos="100.00" arrival="208.50" arrivalPos="93.20" duration="179.50" routeLength="210.56" timeLoss="33.73" maxSpeed="1.44"/>
    </personinfo>
    <tripinfo id="WS.2" depart="167.00" departLane="2_1_1" departPos="5.10" departSpeed="0.00" departDelay="0.33" arrival="209.50" arrivalLane="1_3_1" arrivalPos="189.60" arrivalSpeed="10.59" duration="42.50" routeLength="385.10" waitingTime="0.00" waitingCount="0" stopTime="0.00" timeLoss="6.48" rerouteNo="0" devices="tripinfo_WS.2 routing_WS.2" vType="DEFAULT_VEHTYPE" speedFactor="0.98" vaporized=""/>
    <personinfo id="person_EW_n.2" depart="36.50" type="DEFAULT_PEDTYPE" speedFactor="0.96" duration="180.50" waitingTime="0.00" timeLoss="22.73" traveltime="180.50">
        <walk depart="36.50" departPos="100.00" arrival="217.00" arrivalPos="93.20" duration="180.50" routeLength="210.56" timeLoss="22.73" maxSpeed="1.33"/>
    </personinfo>
    <personinfo id="person_SE_diag.1" depart="66.50" type="DEFAULT_PEDTYPE" speedFactor="1.00" duration="151.00" waitingTime="0.00" timeLoss="15.73" traveltime="151.00">
        <walk depart="66.50" departPos="100.00" arrival="217.50" arrivalPos="93.20" duration="151.00" routeLength="187.66" timeLoss="15.73" maxSpeed="1.39"/>
    </personinfo>
    <personinfo id="person_NE_diag.0" depart="21.50" type="DEFAULT_PEDTYPE" speedFactor="1.00" duration="196.50" waitingTime="0.00" timeLoss="32.55" traveltime="196.50">
        <walk depart="21.50" departPos="100.00" arrival="218.00" arrivalPos="93.20" duration="196.50" routeLength="228.35" timeLoss="32.55" maxSpeed="1.39"/>
    </personinfo>
    <personinfo id="person_WE_s.2" depart="64.50" type="DEFAULT_PEDTYPE" speedFactor="1.20" duration="154.50" waitingTime="0.00" timeLoss="28.99" traveltime="154.50">
        <walk depart="64.50" departPos="100.00" arrival="219.00" arrivalPos="93.20" duration="154.50" routeLength="209.26" timeLoss="28.99" maxSpeed="1.67"/>
    </personinfo>
    <personinfo id="person_WE_n.1" depart="22.50" type="DEFAULT_PEDTYPE" speedFactor="0.93" duration="197.50" waitingTime="0.00" timeLoss="24.61" traveltime="197.50">
        <walk depart="22.50" departPos="100.00" arrival="220.00" arrivalPos="93.20" duration="197.50" routeLength="224.16" timeLoss="24.61" maxSpeed="1.30"/>
    </personinfo>
    <tripinfo id="NS.7" depart="164.50" departLane="5_1_2" departPos="5.10" departSpeed="0.00" departDelay="0.43" arrival="220.00" arrivalLane="1_3_1" arrivalPos="189.60" arrivalSpeed="10.81" duration="55.50" routeLength="395.22" waitingTime="11.50" waitingCount="1" stopTime="0.00" timeLoss="19.47" rerouteNo="0" devices="tripinfo_NS.7 routing_NS.7" vType="DEFAULT_VEHTYPE" speedFactor="0.99" vaporized=""/>
    <tripinfo id="SN.5" depart="170.50" departLane="3_1_1" departPos="5.10" departSpeed="0.00" departDelay="0.05" arrival="222.50" arrivalLane="1_5_1" arrivalPos="189.60" arrivalSpeed="9.58" duration="52.00" routeLength="395.22" waitingTime="5.00" waitingCount="1" stopTime="0.00" timeLoss="11.73" rerouteNo="0" devices="tripinfo_SN.5 routing_SN.5" vType="DEFAULT_VEHTYPE" speedFactor="0.88" vaporized=""/>
    <personinfo id="person_NW_diag.0" depart="58.50" type="DEFAULT_PEDTYPE" speedFactor="0.93" duration="165.00" waitingTime="0.00" timeLoss="16.95" traveltime="165.00">
        <walk depart="58.50" departPos="100.00" arrival="223.50" arrivalPos="93.20" duration="165.00" routeLength="190.90" timeLoss="16.95" maxSpeed="1.29"/>
    </personinfo>
    <personinfo id="person_EW_s.0" depart="31.00" type="DEFAULT_PEDTYPE" speedFactor="0.93" duration="193.50" waitingTime="0.00" timeLoss="20.54" traveltime="193.50">
        <walk depart="31.00" departPos="100.00" arrival="224.50" arrivalPos="93.20" duration="193.50" routeLength="222.86" timeLoss="20.54" maxSpeed="1.29"/>
    </personinfo>
    <personinfo id="person_WE_s.1" depart="54.50" type="DEFAULT_PEDTYPE" speedFactor="1.08" duration="173.50" waitingTime="0.00" timeLoss="34.34" traveltime="173.50">
        <walk depart="54.50" departPos="100.00" arrival="228.00" arrivalPos="93.20" duration="173.50" routeLength="209.26" timeLoss="34.34" maxSpeed="1.50"/>
    </personinfo>
    <tripinfo id="EW.1" depart="187.50" departLane="4_1_2" departPos="5.10" departSpeed="0.00" departDelay="0.00" arrival="228.00" arrivalLane="1_2_1" arrivalPos="186.40" arrivalSpeed="10.44" duration="40.50" routeLength="394.90" waitingTime="0.00" waitingCount="0" stopTime="0.00" timeLoss="3.58" rerouteNo="0" devices="tripinfo_EW.1 routing_EW.1" vType="DEFAULT_VEHTYPE" speedFactor="0.96" vaporized=""/>
    <tripinfo id="WE.3" depart="187.50" departLane="2_1_1" departPos="5.10" departSpeed="0.00" departDelay="0.00" arrival="233.50" arrivalLane="1_4_1" arrivalPos="186.40" arrivalSpeed="9.19" duration="46.00" routeLength="395.13" waitingTime="0.00" waitingCount="0" stopTime="0.00" timeLoss="3.78" rerouteNo="0" devices="tripinfo_WE.3 routing_WE.3" vType="DEFAULT_VEHTYPE" speedFactor="0.84" vaporized=""/>
    <tripinfo id="NE.1" depart="187.50" departLane="5_1_3" departPos="5.10" departSpeed="0.00" departDelay="0.00" arrival="239.50" arrivalLane="1_4_2" arrivalPos="186.40" arrivalSpeed="14.33" duration="52.00" routeLength="392.89" waitingTime="14.00" waitingCount="1" stopTime="0.00" timeLoss="24.49" rerouteNo="0" devices="tripinfo_NE.1 routing_NE.1" vType="DEFAULT_VEHTYPE" speedFactor="1.30" vaporized=""/>
    <personinfo id="person_EW_n.3" depart="65.50" type="DEFAULT_PEDTYPE" speedFactor="0.97" duration="174.50" waitingTime="0.00" timeLoss="18.67" traveltime="174.50">
        <walk depart="65.50" departPos="100.00" arrival="240.00" arrivalPos="93.20" duration="174.50" routeLength="210.56" timeLoss="18.67" maxSpeed="1.35"/>
    </personinfo>
    <tripinfo id="SN.6" depart="205.00" departLane="3_1_2" departPos="5.10" departSpeed="0.00" departDelay="0.45" arrival="243.50" arrivalLane="1_5_2" arrivalPos="189.60" arrivalSpeed="11.21" duration="38.50" routeLength="395.22" waitingTime="0.00" waitingCount="0" stopTime="0.00" timeLoss="4.46" rerouteNo="0" devices="tripinfo_SN.6 routing_SN.6" vType="DEFAULT_VEHTYPE" speedFactor="1.04" vaporized=""/>
    <tripinfo id="SE.3" depart="205.00" departLane="3_1_1" departPos="5.10" departSpeed="0.00" departDelay="0.45" arrival="244.50" arrivalLane="1_4_1" arrivalPos="186.40" arrivalSpeed="12.65" duration="39.50" routeLength="379.93" waitingTime="1.00" waitingCount="1" stopTime="0.00" timeLoss="8.83" rerouteNo="0" devices="tripinfo_SE.3 routing_SE.3" vType="DEFAULT_VEHTYPE" speedFactor="1.13" vaporized=""/>
    <tripinfo id="NW.3" depart="187.50" departLane="5_1_1" departPos="5.10" departSpeed="0.00" departDelay="0.00" arrival="245.00" arrivalLane="1_2_1" arrivalPos="186.40" arrivalSpeed="10.80" duration="57.50" routeLength="382.62" waitingTime="13.50" waitingCount="1" stopTime="0.00" timeLoss="23.13" rerouteNo="0" devices="tripinfo_NW.3 routing_NW.3" vType="DEFAULT_VEHTYPE" speedFactor="1.01" vaporized=""/>
    <tripinfo id="NS.6" depart="141.00" departLane="5_1_2" departPos="5.10" departSpeed="0.00" departDelay="0.37" arrival="247.00" arrivalLane="1_3_1" arrivalPos="189.60" arrivalSpeed="9.62" duration="106.00" routeLength="395.22" waitingTime="58.50" waitingCount="2" stopTime="0.00" timeLoss="65.59" rerouteNo="0" devices="tripinfo_NS.6 routing_NS.6" vType="DEFAULT_VEHTYPE" speedFactor="0.88" vaporized=""/>
    <personinfo id="person_WE_n.2" depart="80.00" type="DEFAULT_PEDTYPE" speedFactor="1.09" duration="169.50" waitingTime="0.00" timeLoss="21.16" traveltime="169.50">
        <walk depart="80.00" departPos="100.00" arrival="249.50" arrivalPos="93.20" duration="169.50" routeLength="224.16" timeLoss="21.16" maxSpeed="1.51"/>
    </personinfo>
    <tripinfo id="NS.8" depart="188.00" departLane="5_1_2" departPos="5.10" departSpeed="0.00" departDelay="0.50" arrival="251.00" arrivalLane="1_3_1" arrivalPos="189.60" arrivalSpeed="8.02" duration="63.00" routeLength="395.22" waitingTime="9.00" waitingCount="1" stopTime="0.00" timeLoss="15.66" rerouteNo="0" devices="tripinfo_NS.8 routing_NS.8" vType="DEFAULT_VEHTYPE" speedFactor="0.75" vaporized=""/>
    <personinfo id="person_WE_s.3" depart="77.50" type="DEFAULT_PEDTYPE" speedFactor="1.05" duration="174.50" waitingTime="0.00" timeLoss="30.43" traveltime="174.50">
        <walk depart="77.50" departPos="100.00" arrival="252.00" arrivalPos="93.20" duration="174.50" routeLength="209.26" timeLoss="30.43" maxSpeed="1.45"/>
    </personinfo>
    <personinfo id="person_NE_diag.1" depart="40.50" type="DEFAULT_PEDTYPE" speedFactor="0.90" duration="212.00" waitingTime="0.00" timeLoss="32.81" traveltime="212.00">
        <walk depart="40.50" departPos="100.00" arrival="252.50" arrivalPos="93.20" duration="212.00" routeLength="223.30" timeLoss="32.81" maxSpeed="1.25"/>
    </personinfo>
    <tripinfo id="EN.1" depart="187.50" departLane="4_1_1" departPos="5.10" departSpeed="0.00" departDelay="0.00" arrival="252.50" arrivalLane="1_5_1" arrivalPos="189.60" arrivalSpeed="7.33" duration="65.00" routeLength="382.62" waitingTime="10.00" waitingCount="2" stopTime="0.00" timeLoss="15.87" rerouteNo="0" devices="tripinfo_EN.1 routing_EN.1" vType="DEFAULT_VEHTYPE" speedFactor="0.71" vaporized=""/>
    <personinfo id="person_SE_diag.2" depart="126.50" type="DEFAULT_PEDTYPE" speedFactor="1.15" duration="131.00" waitingTime="0.00" timeLoss="13.36" traveltime="131.00">
        <walk depart="126.50" departPos="100.00" arrival="257.50" arrivalPos="93.20" duration="131.00" routeLength="187.66" timeLoss="13.36" maxSpeed="1.60"/>
    </personinfo>
    <personinfo id="person_NW_diag.1" depart="89.50" type="DEFAULT_PEDTYPE" speedFactor="0.88" duration="174.00" waitingTime="0.00" timeLoss="17.56" traveltime="174.00">
        <walk depart="89.50" departPos="100.00" arrival="263.50" arrivalPos="93.20" duration="174.00" routeLength="190.90" timeLoss="17.56" maxSpeed="1.22"/>
    </personinfo>
    <personinfo id="person_SW_diag.0" depart="59.00" type="DEFAULT_PEDTYPE" speedFactor="0.97" duration="205.00" waitingTime="0.00" timeLoss="34.15" traveltime="205.00">
        <walk depart="59.00" departPos="100.00" arrival="264.00" arrivalPos="93.20" duration="205.00" routeLength="230.53" timeLoss="34.15" maxSpeed="1.35"/>
    </personinfo>
    <personinfo id="person_EW_n.5" depart="88.00" type="DEFAULT_PEDTYPE" speedFactor="0.98" duration="176.50" waitingTime="0.00" timeLoss="22.57" traveltime="176.50">
        <walk depart="88.00" departPos="100.00" arrival="264.50" arrivalPos="93.20" duration="176.50" routeLength="210.56" timeLoss="22.57" maxSpeed="1.37"/>
    </personinfo>
    <tripinfo id="NS.9" depart="211.00" departLane="5_1_1" departPos="5.10" departSpeed="0.00" departDelay="0.06" arrival="266.00" arrivalLane="1_3_1" arrivalPos="189.60" arrivalSpeed="10.61" duration="55.00" routeLength="395.22" waitingTime="10.50" waitingCount="1" stopTime="0.00" timeLoss="17.71" rerouteNo="0" devices="tripinfo_NS.9 routing_NS.9" vType="DEFAULT_VEHTYPE" speedFactor="0.96" vaporized=""/>
    <personinfo id="person_EW_n.4" depart="85.50" type="DEFAULT_PEDTYPE" speedFactor="0.92" duration="184.50" waitingTime="0.00" timeLoss="19.46" traveltime="184.50">
        <walk depart="85.50" departPos="100.00" arrival="270.00" arrivalPos="93.20" duration="184.50" routeLength="210.56" timeLoss="19.46" maxSpeed="1.28"/>
    </personinfo>
    <personinfo id="person_NE_diag.2" depart="102.50" type="DEFAULT_PEDTYPE" speedFactor="1.09" duration="168.00" waitingTime="0.00" timeLoss="21.97" traveltime="168.00">
        <walk depart="102.50" departPos="100.00" arrival="270.50" arrivalPos="93.20" duration="168.00" routeLength="220.66" timeLoss="21.97" maxSpeed="1.51"/>
    </personinfo>
    <personinfo id="person_EW_n.6" depart="107.50" type="DEFAULT_PEDTYPE" speedFactor="1.08" duration="163.50" waitingTime="0.00" timeLoss="23.18" traveltime="163.50">
        <walk depart="107.50" departPos="100.00" arrival="271.00" arrivalPos="93.20" duration="163.50" routeLength="210.56" timeLoss="23.18" maxSpeed="1.50"/>
    </personinfo>
    <personinfo id="person_EW_n.8" depart="118.00" type="DEFAULT_PEDTYPE" speedFactor="1.12" duration="156.00" waitingTime="0.00" timeLoss="20.70" traveltime="156.00">
        <walk depart="118.00" departPos="100.00" arrival="274.00" arrivalPos="93.20" duration="156.00" routeLength="210.56" timeLoss="20.70" maxSpeed="1.56"/>
    </personinfo>
    <personinfo id="person_EW_n.7" depart="110.50" type="DEFAULT_PEDTYPE" speedFactor="0.98" duration="173.00" waitingTime="0.00" timeLoss="18.60" traveltime="173.00">
        <walk depart="110.50" departPos="100.00" arrival="283.50" arrivalPos="93.20" duration="173.00" routeLength="210.56" timeLoss="18.60" maxSpeed="1.36"/>
    </personinfo>
    <personinfo id="person_NS_e.1" depart="71.50" type="DEFAULT_PEDTYPE" speedFactor="0.82" duration="212.50" waitingTime="0.00" timeLoss="20.24" traveltime="212.50">
        <walk depart="71.50" departPos="100.00" arrival="284.00" arrivalPos="94.80" duration="212.50" routeLength="219.53" timeLoss="20.24" maxSpeed="1.14"/>
    </personinfo>
    <personinfo id="person_SN_e.0" depart="113.00" type="DEFAULT_PEDTYPE" speedFactor="1.04" duration="172.50" waitingTime="0.00" timeLoss="27.71" traveltime="172.50">
        <walk depart="113.00" departPos="100.00" arrival="285.50" arrivalPos="94.80" duration="172.50" routeLength="209.13" timeLoss="27.71" maxSpeed="1.44"/>
    </personinfo>
    <tripinfo id="NS.10" depart="234.50" departLane="5_1_2" departPos="5.10" departSpeed="0.00" departDelay="0.12" arrival="286.00" arrivalLane="1_3_1" arrivalPos="189.60" arrivalSpeed="12.56" duration="51.50" routeLength="395.22" waitingTime="12.00" waitingCount="1" stopTime="0.00" timeLoss="20.02" rerouteNo="0" devices="tripinfo_NS.10 routing_NS.10" vType="DEFAULT_VEHTYPE" speedFactor="1.13" vaporized=""/>
    <tripinfo id="SN.7" depart="239.00" departLane="3_1_1" departPos="5.10" departSpeed="0.00" departDelay="0.36" arrival="286.50" arrivalLane="1_5_1" arrivalPos="189.60" arrivalSpeed="10.20" duration="47.50" routeLength="395.22" waitingTime="3.50" waitingCount="1" stopTime="0.00" timeLoss="10.75" rerouteNo="0" devices="tripinfo_SN.7 routing_SN.7" vType="DEFAULT_VEHTYPE" speedFactor="0.96" vaporized=""/>
    <personinfo id="person_WE_s.4" depart="124.50" type="DEFAULT_PEDTYPE" speedFactor="1.08" duration="164.00" waitingTime="0.00" timeLoss="24.20" traveltime="164.00">
        <walk depart="124.50" departPos="100.00" arrival="288.50" arrivalPos="93.20" duration="164.00" routeLength="209.26" timeLoss="24.20" maxSpeed="1.50"/>
    </personinfo>
    <tripinfo id="WE.4" depart="250.00" departLane="2_1_1" departPos="5.10" departSpeed="0.00" departDelay="0.00" arrival="293.00" arrivalLane="1_4_1" arrivalPos="186.40" arrivalSpeed="10.00" duration="43.00" routeLength="395.13" waitingTime="0.00" waitingCount="0" stopTime="0.00" timeLoss="4.42" rerouteNo="0" devices="tripinfo_WE.4 routing_WE.4" vType="DEFAULT_VEHTYPE" speedFactor="0.92" vaporized=""/>