<?xml version="1.0" encoding="UTF-8"?>

<!-- generated on 2025-03-18 13:34:31 by Eclipse SUMO GUI Version 1.22.0
<sumoConfiguration xmlns:xsi="http://www.w3.org/2001/XMLSchema-instance" xsi:noNamespaceSchemaLocation="http://sumo.dlr.de/xsd/sumoConfiguration.xsd">

    <input>
        <net-file value="C:\Users\chris\PycharmProjects\UW_CET593_project2\environment/network_model/UW_intersection_pedestrian_X.net.xml"/>
        <route-files value="C:\Users\chris\PycharmProjects\UW_CET593_project2\environment/network_model/UW_IntersectionIncreaseDemand.rou.xml"/>
        <additional-files value="C:\Users\chris\PycharmProjects\UW_CET593_project2\environment/network_model/UW_intersection_Concurrent.add.xml"/>
    </input>

    <output>
        <queue-output value="C:\Users\chris\PycharmProjects\UW_CET593_project2\environment/simulation_data/UW_intersection/queues_multi_scale_symmetric_pene_50.xml"/>
        <tripinfo-output value="C:\Users\chris\PycharmProjects\UW_CET593_project2\environment/simulation_data/UW_intersection/tripinfo_multi_scale_symmetric_pene_50.xml"/>
    </output>

    <time>
        <begin value="0"/>
        <step-length value="0.5"/>
    </time>

    <processing>
        <waiting-time-memory value="1000"/>
    </processing>

    <report>
        <verbose value="true"/>
        <no-step-log value="true"/>
    </report>

    <traci_server>
        <remote-port value="56804"/>
    </traci_server>

    <gui_only>
        <start value="true"/>
    </gui_only>

</sumoConfiguration>
-->

<tripinfos xmlns:xsi="http://www.w3.org/2001/XMLSchema-instance" xsi:noNamespaceSchemaLocation="http://sumo.dlr.de/xsd/tripinfo_file.xsd">
    <tripinfo id="SE.0" depart="0.00" departLane="3_1_1" departPos="5.10" departSpeed="0.00" departDelay="0.00" arrival="36.00" arrivalLane="1_4_1" arrivalPos="186.40" arrivalSpeed="11.92" duration="36.00" routeLength="379.93" waitingTime="0.00" waitingCount="0" stopTime="0.00" timeLoss="4.59" rerouteNo="0" devices="tripinfo_SE.0 routing_SE.0" vType="DEFAULT_VEHTYPE" speedFactor="1.11" vaporized=""/>
    <tripinfo id="EN.0" depart="0.00" departLane="4_1_1" departPos="5.10" departSpeed="0.00" departDelay="0.00" arrival="38.00" arrivalLane="1_5_1" arrivalPos="189.60" arrivalSpeed="12.90" duration="38.00" routeLength="382.62" waitingTime="0.50" waitingCount="1" stopTime="0.00" timeLoss="8.56" rerouteNo="0" devices="tripinfo_EN.0 routing_EN.0" vType="DEFAULT_VEHTYPE" speedFactor="1.19" vaporized=""/>
    <tripinfo id="NS.0" depart="0.00" departLane="5_1_1" departPos="5.10" departSpeed="0.00" departDelay="0.00" arrival="39.00" arrivalLane="1_3_1" arrivalPos="189.60" arrivalSpeed="11.13" duration="39.00" routeLength="395.22" waitingTime="0.00" waitingCount="0" stopTime="0.00" timeLoss="3.16" rerouteNo="0" devices="tripinfo_NS.0 routing_NS.0" vType="DEFAULT_VEHTYPE" speedFactor="0.99" vaporized=""/>
    <tripinfo id="NW.0" depart="2.50" departLane="5_1_1" departPos="5.10" departSpeed="0.00" departDelay="2.50" arrival="40.00" arrivalLane="1_2_1" arrivalPos="186.40" arrivalSpeed="12.00" duration="37.50" routeLength="382.62" waitingTime="0.00" waitingCount="0" stopTime="0.00" timeLoss="6.16" rerouteNo="0" devices="tripinfo_NW.0 routing_NW.0" vType="DEFAULT_VEHTYPE" speedFactor="1.12" vaporized=""/>
    <tripinfo id="NE.0" depart="0.00" departLane="5_1_3" departPos="5.10" departSpeed="0.00" departDelay="0.00" arrival="43.50" arrivalLane="1_4_1" arrivalPos="186.40" arrivalSpeed="9.72" duration="43.50" routeLength="392.89" waitingTime="0.00" waitingCount="0" stopTime="0.00" timeLoss="4.03" rerouteNo="0" devices="tripinfo_NE.0 routing_NE.0" vType="DEFAULT_VEHTYPE" speedFactor="0.90" vaporized=""/>
    <tripinfo id="WE.0" depart="0.00" departLane="2_1_1" departPos="5.10" departSpeed="0.00" departDelay="0.00" arrival="54.50" arrivalLane="1_4_1" arrivalPos="186.40" arrivalSpeed="11.38" duration="54.50" routeLength="395.13" waitingTime="9.50" waitingCount="1" stopTime="0.00" timeLoss="19.60" rerouteNo="0" devices="tripinfo_WE.0 routing_WE.0" vType="DEFAULT_VEHTYPE" speedFactor="1.02" vaporized=""/>
    <tripinfo id="WN.0" depart="2.50" departLane="2_1_1" departPos="5.10" departSpeed="0.00" departDelay="2.50" arrival="55.00" arrivalLane="1_5_2" arrivalPos="189.60" arrivalSpeed="12.48" duration="52.50" routeLength="392.90" waitingTime="6.00" waitingCount="2" stopTime="0.00" timeLoss="20.70" rerouteNo="0" devices="tripinfo_WN.0 routing_WN.0" vType="DEFAULT_VEHTYPE" speedFactor="1.11" vaporized=""/>
    <tripinfo id="EW.0" depart="2.50" departLane="4_1_2" departPos="5.10" departSpeed="0.00" departDelay="2.50" arrival="58.00" arrivalLane="1_2_1" arrivalPos="186.40" arrivalSpeed="13.00" duration="55.50" routeLength="394.90" waitingTime="6.50" waitingCount="3" stopTime="0.00" timeLoss="25.74" rerouteNo="0" devices="tripinfo_EW.0 routing_EW.0" vType="DEFAULT_VEHTYPE" speedFactor="1.20" vaporized=""/>
    <tripinfo id="ES.0" depart="0.00" departLane="4_1_2" departPos="5.10" departSpeed="0.00" departDelay="0.00" arrival="59.00" arrivalLane="1_3_2" arrivalPos="189.60" arrivalSpeed="10.63" duration="59.00" routeLength="392.89" waitingTime="9.50" waitingCount="2" stopTime="0.00" timeLoss="21.65" rerouteNo="0" devices="tripinfo_ES.0 routing_ES.0" vType="DEFAULT_VEHTYPE" speedFactor="0.95" vaporized=""/>
    <tripinfo id="WS.0" depart="5.00" departLane="2_1_1" departPos="5.10" departSpeed="0.00" departDelay="5.00" arrival="60.50" arrivalLane="1_3_1" arrivalPos="189.60" arrivalSpeed="10.02" duration="55.50" routeLength="385.10" waitingTime="4.00" waitingCount="1" stopTime="0.00" timeLoss="18.12" rerouteNo="0" devices="tripinfo_WS.0 routing_WS.0" vType="DEFAULT_VEHTYPE" speedFactor="0.94" vaporized=""/>
    <tripinfo id="SN.0" depart="0.00" departLane="3_1_2" departPos="5.10" departSpeed="0.00" departDelay="0.00" arrival="71.50" arrivalLane="1_5_1" arrivalPos="189.60" arrivalSpeed="11.15" duration="71.50" routeLength="395.22" waitingTime="30.00" waitingCount="1" stopTime="0.00" timeLoss="35.71" rerouteNo="0" devices="tripinfo_SN.0 routing_SN.0" vType="DEFAULT_VEHTYPE" speedFactor="1.00" vaporized=""/>
    <tripinfo id="NS.2" depart="31.50" departLane="5_1_2" departPos="5.10" departSpeed="0.00" departDelay="0.25" arrival="72.00" arrivalLane="1_3_1" arrivalPos="189.60" arrivalSpeed="10.42" duration="40.50" routeLength="395.22" waitingTime="0.00" waitingCount="0" stopTime="0.00" timeLoss="2.40" rerouteNo="0" devices="tripinfo_NS.2 routing_NS.2" vType="DEFAULT_VEHTYPE" speedFactor="0.93" vaporized=""/>
    <tripinfo id="NS.1" depart="16.00" departLane="5_1_2" departPos="5.10" departSpeed="0.00" departDelay="0.38" arrival="72.50" arrivalLane="1_3_2" arrivalPos="189.60" arrivalSpeed="11.28" duration="56.50" routeLength="395.22" waitingTime="14.00" waitingCount="1" stopTime="0.00" timeLoss="21.49" rerouteNo="0" devices="tripinfo_NS.1 routing_NS.1" vType="DEFAULT_VEHTYPE" speedFactor="1.01" vaporized=""/>
    <tripinfo id="SW.0" depart="0.00" departLane="3_1_3" departPos="5.10" departSpeed="0.00" departDelay="0.00" arrival="73.50" arrivalLane="1_2_1" arrivalPos="186.40" arrivalSpeed="12.77" duration="73.50" routeLength="392.89" waitingTime="33.00" waitingCount="2" stopTime="0.00" timeLoss="42.20" rerouteNo="0" devices="tripinfo_SW.0 routing_SW.0" vType="DEFAULT_VEHTYPE" speedFactor="1.14" vaporized=""/>
    <tripinfo id="SN.1" depart="23.00" departLane="3_1_1" departPos="5.10" departSpeed="0.00" departDelay="0.27" arrival="74.50" arrivalLane="1_5_2" arrivalPos="189.60" arrivalSpeed="9.69" duration="51.50" routeLength="395.22" waitingTime="5.50" waitingCount="1" stopTime="0.00" timeLoss="12.22" rerouteNo="0" devices="tripinfo_SN.1 routing_SN.1" vType="DEFAULT_VEHTYPE" speedFactor="0.91" vaporized=""/>
    <tripinfo id="SE.1" depart="45.50" departLane="3_1_1" departPos="5.10" departSpeed="0.00" departDelay="0.05" arrival="83.00" arrivalLane="1_4_1" arrivalPos="186.40" arrivalSpeed="12.09" duration="37.50" routeLength="379.93" waitingTime="0.00" waitingCount="0" stopTime="0.00" timeLoss="5.43" rerouteNo="0" devices="tripinfo_SE.1 routing_SE.1" vType="DEFAULT_VEHTYPE" speedFactor="1.08" vaporized=""/>
    <tripinfo id="NW.1" depart="42.00" departLane="5_1_1" departPos="5.10" departSpeed="0.00" departDelay="0.33" arrival="87.50" arrivalLane="1_2_1" arrivalPos="186.40" arrivalSpeed="9.09" duration="45.50" routeLength="382.62" waitingTime="0.00" waitingCount="0" stopTime="0.00" timeLoss="2.26" rerouteNo="0" devices="tripinfo_NW.1 routing_NW.1" vType="DEFAULT_VEHTYPE" speedFactor="0.81" vaporized=""/>
    <tripinfo id="SN.2" depart="45.50" departLane="3_1_2" departPos="5.10" departSpeed="0.00" departDelay="0.05" arrival="87.50" arrivalLane="1_5_1" arrivalPos="189.60" arrivalSpeed="9.69" duration="42.00" routeLength="395.22" waitingTime="0.00" waitingCount="0" stopTime="0.00" timeLoss="3.53" rerouteNo="0" devices="tripinfo_SN.2 routing_SN.2" vType="DEFAULT_VEHTYPE" speedFactor="0.92" vaporized=""/>
    <tripinfo id="NS.3" depart="47.00" departLane="5_1_2" departPos="5.10" departSpeed="0.00" departDelay="0.13" arrival="91.50" arrivalLane="1_3_1" arrivalPos="189.60" arrivalSpeed="9.45" duration="44.50" routeLength="395.22" waitingTime="0.00" waitingCount="0" stopTime="0.00" timeLoss="2.18" rerouteNo="0" devices="tripinfo_NS.3 routing_NS.3" vType="DEFAULT_VEHTYPE" speedFactor="0.84" vaporized=""/>
    <tripinfo id="NS.4" depart="62.50" departLane="5_1_2" departPos="5.10" departSpeed="0.00" departDelay="0.00" arrival="103.00" arrivalLane="1_3_1" arrivalPos="189.60" arrivalSpeed="10.39" duration="40.50" routeLength="395.22" waitingTime="0.00" waitingCount="0" stopTime="0.00" timeLoss="3.63" rerouteNo="0" devices="tripinfo_NS.4 routing_NS.4" vType="DEFAULT_VEHTYPE" speedFactor="0.96" vaporized=""/>
    <tripinfo id="SN.3" depart="68.50" departLane="3_1_1" departPos="5.10" departSpeed="0.00" departDelay="0.32" arrival="112.50" arrivalLane="1_5_1" arrivalPos="189.60" arrivalSpeed="9.52" duration="44.00" routeLength="395.22" waitingTime="0.00" waitingCount="0" stopTime="0.00" timeLoss="2.29" rerouteNo="0" devices="tripinfo_SN.3 routing_SN.3" vType="DEFAULT_VEHTYPE" speedFactor="0.85" vaporized=""/>
    <tripinfo id="NS.5" depart="78.50" departLane="5_1_2" departPos="5.10" departSpeed="0.00" departDelay="0.38" arrival="114.50" arrivalLane="1_3_1" arrivalPos="189.60" arrivalSpeed="12.76" duration="36.00" routeLength="395.22" waitingTime="0.00" waitingCount="0" stopTime="0.00" timeLoss="4.77" rerouteNo="0" devices="tripinfo_NS.5 routing_NS.5" vType="DEFAULT_VEHTYPE" speedFactor="1.14" vaporized=""/>
    <tripinfo id="NW.2" depart="83.50" departLane="5_1_1" departPos="5.10" departSpeed="0.00" departDelay="0.17" arrival="120.50" arrivalLane="1_2_1" arrivalPos="186.40" arrivalSpeed="12.35" duration="37.00" routeLength="382.62" waitingTime="0.00" waitingCount="0" stopTime="0.00" timeLoss="5.32" rerouteNo="0" devices="tripinfo_NW.2 routing_NW.2" vType="DEFAULT_VEHTYPE" speedFactor="1.10" vaporized=""/>
    <tripinfo id="NS.6" depart="94.00" departLane="5_1_2" departPos="5.10" departSpeed="0.00" departDelay="0.25" arrival="127.50" arrivalLane="1_3_1" arrivalPos="189.60" arrivalSpeed="12.97" duration="33.50" routeLength="395.22" waitingTime="0.00" waitingCount="0" stopTime="0.00" timeLoss="3.52" rerouteNo="0" devices="tripinfo_NS.6 routing_NS.6" vType="DEFAULT_VEHTYPE" speedFactor="1.19" vaporized=""/>
    <tripinfo id="SE.2" depart="91.00" departLane="3_1_1" departPos="5.10" departSpeed="0.00" departDelay="0.09" arrival="129.00" arrivalLane="1_4_1" arrivalPos="186.40" arrivalSpeed="11.13" duration="38.00" routeLength="379.93" waitingTime="0.00" waitingCount="0" stopTime="0.00" timeLoss="3.05" rerouteNo="0" devices="tripinfo_SE.2 routing_SE.2" vType="DEFAULT_VEHTYPE" speedFactor="0.99" vaporized=""/>
    <personinfo id="person_SE_diag.0" depart="4.50" type="DEFAULT_PEDTYPE" speedFactor="1.18" duration="127.00" waitingTime="0.00" timeLoss="12.45" traveltime="127.00">
        <walk depart="4.50" departPos="100.00" arrival="131.50" arrivalPos="93.20" duration="127.00" routeLength="187.66" timeLoss="12.45" maxSpeed="1.64"/>
    </personinfo>
    <tripinfo id="SN.4" depart="91.00" departLane="3_1_2" departPos="5.10" departSpeed="0.00" departDelay="0.09" arrival="132.50" arrivalLane="1_5_1" arrivalPos="189.60" arrivalSpeed="10.04" duration="41.50" routeLength="395.22" waitingTime="0.00" waitingCount="0" stopTime="0.00" timeLoss="1.93" rerouteNo="0" devices="tripinfo_SN.4 routing_SN.4" vType="DEFAULT_VEHTYPE" speedFactor="0.90" vaporized=""/>
    <tripinfo id="SN.5" depart="114.00" departLane="3_1_1" departPos="5.10" departSpeed="0.00" departDelay="0.37" arrival="150.50" arrivalLane="1_5_1" arrivalPos="189.60" arrivalSpeed="12.43" duration="36.50" routeLength="395.22" waitingTime="0.00" waitingCount="0" stopTime="0.00" timeLoss="4.37" rerouteNo="0" devices="tripinfo_SN.5 routing_SN.5" vType="DEFAULT_VEHTYPE" speedFactor="1.11" vaporized=""/>
    <tripinfo id="NS.7" depart="109.50" departLane="5_1_2" departPos="5.10" departSpeed="0.00" departDelay="0.13" arrival="151.50" arrivalLane="1_3_1" arrivalPos="189.60" arrivalSpeed="9.96" duration="42.00" routeLength="395.22" waitingTime="0.00" waitingCount="0" stopTime="0.00" timeLoss="3.48" rerouteNo="0" devices="tripinfo_NS.7 routing_NS.7" vType="DEFAULT_VEHTYPE" speedFactor="0.93" vaporized=""/>
    <personinfo id="person_SE_diag.1" depart="17.00" type="DEFAULT_PEDTYPE" speedFactor="1.08" duration="140.00" waitingTime="0.00" timeLoss="14.54" traveltime="140.00">
        <walk depart="17.00" departPos="100.00" arrival="157.00" arrivalPos="93.20" duration="140.00" routeLength="187.66" timeLoss="14.54" maxSpeed="1.50"/>
    </personinfo>
    <personinfo id="person_NW_diag.0" depart="15.50" type="DEFAULT_PEDTYPE" speedFactor="1.05" duration="146.00" waitingTime="0.00" timeLoss="15.26" traveltime="146.00">
        <walk depart="15.50" departPos="100.00" arrival="161.50" arrivalPos="93.20" duration="146.00" routeLength="190.90" timeLoss="15.26" maxSpeed="1.46"/>
    </personinfo>
    <tripinfo id="EW.1" depart="125.00" departLane="4_1_2" departPos="5.10" departSpeed="0.00" departDelay="0.00" arrival="162.50" arrivalLane="1_2_1" arrivalPos="186.40" arrivalSpeed="12.52" duration="37.50" routeLength="394.90" waitingTime="0.00" waitingCount="0" stopTime="0.00" timeLoss="5.75" rerouteNo="0" devices="tripinfo_EW.1 routing_EW.1" vType="DEFAULT_VEHTYPE" speedFactor="1.12" vaporized=""/>
    <tripinfo id="WE.1" depart="42.00" departLane="2_1_1" departPos="5.10" departSpeed="0.00" departDelay="0.33" arrival="164.50" arrivalLane="1_4_1" arrivalPos="186.40" arrivalSpeed="12.27" duration="122.50" routeLength="395.13" waitingTime="76.50" waitingCount="1" stopTime="0.00" timeLoss="89.92" rerouteNo="0" devices="tripinfo_WE.1 routing_WE.1" vType="DEFAULT_VEHTYPE" speedFactor="1.10" vaporized=""/>
    <tripinfo id="WE.2" depart="83.50" departLane="2_1_1" departPos="5.10" departSpeed="0.00" departDelay="0.17" arrival="172.50" arrivalLane="1_4_1" arrivalPos="186.40" arrivalSpeed="11.44" duration="89.00" routeLength="395.13" waitingTime="41.00" waitingCount="1" stopTime="0.00" timeLoss="55.41" rerouteNo="0" devices="tripinfo_WE.2 routing_WE.2" vType="DEFAULT_VEHTYPE" speedFactor="1.06" vaporized=""/>
    <tripinfo id="WS.1" depart="58.00" departLane="2_1_1" departPos="5.10" departSpeed="0.00" departDelay="2.44" arrival="173.00" arrivalLane="1_3_1" arrivalPos="189.60" arrivalSpeed="9.54" duration="115.00" routeLength="385.10" waitingTime="62.50" waitingCount="2" stopTime="0.00" timeLoss="73.73" rerouteNo="0" devices="tripinfo_WS.1 routing_WS.1" vType="DEFAULT_VEHTYPE" speedFactor="0.85" vaporized=""/>
    <tripinfo id="WS.2" depart="111.50" departLane="2_1_1" departPos="5.10" departSpeed="0.00" departDelay="0.39" arrival="183.00" arrivalLane="1_3_1" arrivalPos="189.60" arrivalSpeed="12.00" duration="71.50" routeLength="385.10" waitingTime="19.00" waitingCount="3" stopTime="0.00" timeLoss="38.69" rerouteNo="0" devices="tripinfo_WS.2 routing_WS.2" vType="DEFAULT_VEHTYPE" speedFactor="1.07" vaporized=""/>
    <tripinfo id="EN.1" depart="125.00" departLane="4_1_1" departPos="5.10" departSpeed="0.00" departDelay="0.00" arrival="184.50" arrivalLane="1_5_1" arrivalPos="189.60" arrivalSpeed="11.15" duration="59.50" routeLength="382.62" waitingTime="18.00" waitingCount="1" stopTime="0.00" timeLoss="24.37" rerouteNo="0" devices="tripinfo_EN.1 routing_EN.1" vType="DEFAULT_VEHTYPE" speedFactor="1.00" vaporized=""/>
    <tripinfo id="SN.6" depart="136.50" departLane="3_1_2" departPos="5.10" departSpeed="0.00" departDelay="0.14" arrival="187.00" arrivalLane="1_5_2" arrivalPos="189.60" arrivalSpeed="11.93" duration="50.50" routeLength="395.22" waitingTime="9.50" waitingCount="1" stopTime="0.00" timeLoss="17.11" rerouteNo="0" devices="tripinfo_SN.6 routing_SN.6" vType="DEFAULT_VEHTYPE" speedFactor="1.07" vaporized=""/>
    <tripinfo id="NS.9" depart="141.00" departLane="5_1_2" departPos="5.10" departSpeed="0.00" departDelay="0.38" arrival="188.50" arrivalLane="1_3_1" arrivalPos="189.60" arrivalSpeed="10.94" duration="47.50" routeLength="395.22" waitingTime="3.50" waitingCount="1" stopTime="0.00" timeLoss="10.96" rerouteNo="0" devices="tripinfo_NS.9 routing_NS.9" vType="DEFAULT_VEHTYPE" speedFactor="0.98" vaporized=""/>
    <tripinfo id="NE.1" depart="125.00" departLane="5_1_3" departPos="5.10" departSpeed="0.00" departDelay="0.00" arrival="191.00" arrivalLane="1_4_2" arrivalPos="186.40" arrivalSpeed="13.27" duration="66.00" routeLength="392.89" waitingTime="24.00" waitingCount="2" stopTime="0.00" timeLoss="36.05" rerouteNo="0" devices="tripinfo_NE.1 routing_NE.1" vType="DEFAULT_VEHTYPE" speedFactor="1.19" vaporized=""/>
    <tripinfo id="SE.3" depart="136.50" departLane="3_1_1" departPos="5.10" departSpeed="0.00" departDelay="0.14" arrival="194.50" arrivalLane="1_4_1" arrivalPos="186.40" arrivalSpeed="13.00" duration="58.00" routeLength="379.93" waitingTime="18.50" waitingCount="2" stopTime="0.00" timeLoss="30.56" rerouteNo="0" devices="tripinfo_SE.3 routing_SE.3" vType="DEFAULT_VEHTYPE" speedFactor="1.26" vaporized=""/>
    <personinfo id="person_NS_w.0" depart="25.50" type="DEFAULT_PEDTYPE" speedFactor="0.97" duration="172.00" waitingTime="0.00" timeLoss="18.22" traveltime="172.00">
        <walk depart="25.50" departPos="100.00" arrival="197.50" arrivalPos="94.80" duration="172.00" routeLength="207.49" timeLoss="18.22" maxSpeed="1.35"/>
    </personinfo>
    <tripinfo id="SN.7" depart="159.50" departLane="3_1_1" departPos="5.10" departSpeed="0.00" departDelay="0.41" arrival="199.00" arrivalLane="1_5_2" arrivalPos="189.60" arrivalSpeed="11.40" duration="39.50" routeLength="395.22" waitingTime="0.00" waitingCount="0" stopTime="0.00" timeLoss="4.38" rerouteNo="0" devices="tripinfo_SN.7 routing_SN.7" vType="DEFAULT_VEHTYPE" speedFactor="1.02" vaporized=""/>
    <tripinfo id="NW.3" depart="125.50" departLane="5_1_1" departPos="5.10" departSpeed="0.00" departDelay="0.50" arrival="201.00" arrivalLane="1_2_1" arrivalPos="186.40" arrivalSpeed="11.01" duration="75.50" routeLength="382.62" waitingTime="21.50" waitingCount="3" stopTime="0.00" timeLoss="39.79" rerouteNo="0" devices="tripinfo_NW.3 routing_NW.3" vType="DEFAULT_VEHTYPE" speedFactor="0.98" vaporized=""/>
    <tripinfo id="NS.8" depart="125.00" departLane="5_1_2" departPos="5.10" departSpeed="0.00" departDelay="0.00" arrival="201.50" arrivalLane="1_3_1" arrivalPos="189.60" arrivalSpeed="12.58" duration="76.50" routeLength="395.22" waitingTime="24.50" waitingCount="2" stopTime="0.00" timeLoss="45.12" rerouteNo="0" devices="tripinfo_NS.8 routing_NS.8" vType="DEFAULT_VEHTYPE" speedFactor="1.14" vaporized=""/>
    <tripinfo id="NS.10" depart="156.50" departLane="5_1_1" departPos="5.10" departSpeed="0.00" departDelay="0.25" arrival="203.00" arrivalLane="1_3_2" arrivalPos="189.60" arrivalSpeed="10.97" duration="46.50" routeLength="395.22" waitingTime="1.50" waitingCount="1" stopTime="0.00" timeLoss="11.89" rerouteNo="0" devices="tripinfo_NS.10 routing_NS.10" vType="DEFAULT_VEHTYPE" speedFactor="1.03" vaporized=""/>
    <tripinfo id="NW.4" depart="167.00" departLane="5_1_1" departPos="5.10" departSpeed="0.00" departDelay="0.33" arrival="204.50" arrivalLane="1_2_1" arrivalPos="186.40" arrivalSpeed="12.20" duration="37.50" routeLength="382.62" waitingTime="0.00" waitingCount="0" stopTime="0.00" timeLoss="5.66" rerouteNo="0" devices="tripinfo_NW.4 routing_NW.4" vType="DEFAULT_VEHTYPE" speedFactor="1.09" vaporized=""/>
    <tripinfo id="WE.3" depart="125.50" departLane="2_1_1" departPos="5.10" departSpeed="0.00" departDelay="0.50" arrival="208.50" arrivalLane="1_4_1" arrivalPos="186.40" arrivalSpeed="12.08" duration="83.00" routeLength="395.13" waitingTime="23.00" waitingCount="4" stopTime="0.00" timeLoss="51.17" rerouteNo="0" devices="tripinfo_WE.3 routing_WE.3" vType="DEFAULT_VEHTYPE" speedFactor="1.12" vaporized=""/>
    <personinfo id="person_SE_diag.2" depart="41.00" type="DEFAULT_PEDTYPE" speedFactor="0.87" duration="171.50" waitingTime="0.00" timeLoss="16.87" traveltime="171.50">
        <walk depart="41.00" departPos="100.00" arrival="212.50" arrivalPos="93.20" duration="171.50" routeLength="187.66" timeLoss="16.87" maxSpeed="1.21"/>
    </personinfo>
    <tripinfo id="NS.11" depart="172.00" departLane="5_1_2" departPos="5.10" departSpeed="0.00" departDelay="0.13" arrival="212.50" arrivalLane="1_3_1" arrivalPos="189.60" arrivalSpeed="10.43" duration="40.50" routeLength="395.22" waitingTime="0.00" waitingCount="0" stopTime="0.00" timeLoss="3.48" rerouteNo="0" devices="tripinfo_NS.11 routing_NS.11" vType="DEFAULT_VEHTYPE" speedFactor="0.96" vaporized=""/>
    <personinfo id="person_SN_e.0" depart="26.50" type="DEFAULT_PEDTYPE" speedFactor="0.88" duration="191.50" waitingTime="0.00" timeLoss="19.99" traveltime="191.50">
        <walk depart="26.50" departPos="100.00" arrival="218.00" arrivalPos="94.80" duration="191.50" routeLength="209.13" timeLoss="19.99" maxSpeed="1.22"/>
    </personinfo>
    <tripinfo id="SN.8" depart="182.00" departLane="3_1_2" departPos="5.10" departSpeed="0.00" departDelay="0.18" arrival="219.50" arrivalLane="1_5_1" arrivalPos="189.60" arrivalSpeed="11.36" duration="37.50" routeLength="395.22" waitingTime="0.00" waitingCount="0" stopTime="0.00" timeLoss="2.72" rerouteNo="0" devices="tripinfo_SN.8 routing_SN.8" vType="DEFAULT_VEHTYPE" speedFactor="1.01" vaporized=""/>
    <personinfo id="person_WE_s.2" depart="43.00" type="DEFAULT_PEDTYPE" speedFactor="1.20" duration="177.50" waitingTime="0.00" timeLoss="51.99" traveltime="177.50">
        <walk depart="43.00" departPos="100.00" arrival="220.50" arrivalPos="93.20" duration="177.50" routeLength="209.26" timeLoss="51.99" maxSpeed="1.67"/>
    </personinfo>
    <personinfo id="person_SE_diag.3" depart="85.50" type="DEFAULT_PEDTYPE" speedFactor="1.08" duration="140.50" waitingTime="0.00" timeLoss="15.00" traveltime="140.50">
        <walk depart="85.50" departPos="100.00" arrival="226.00" arrivalPos="93.20" duration="140.50" routeLength="187.66" timeLoss="15.00" maxSpeed="1.50"/>
    </personinfo>
    <personinfo id="person_EW_n.3" depart="60.00" type="DEFAULT_PEDTYPE" speedFactor="1.14" duration="167.00" waitingTime="0.00" timeLoss="34.26" traveltime="167.00">
        <walk depart="60.00" departPos="100.00" arrival="227.00" arrivalPos="93.20" duration="167.00" routeLength="210.56" timeLoss="34.26" maxSpeed="1.59"/>
    </personinfo>
    <tripinfo id="NS.12" depart="187.50" departLane="5_1_2" departPos="5.10" departSpeed="0.00" departDelay="0.00" arrival="227.00" arrivalLane="1_3_1" arrivalPos="189.60" arrivalSpeed="10.65" duration="39.50" routeLength="395.22" waitingTime="0.00" waitingCount="0" stopTime="0.00" timeLoss="3.86" rerouteNo="0" devices="tripinfo_NS.12 routing_NS.12" vType="DEFAULT_VEHTYPE" speedFactor="0.99" vaporized=""/>
    <personinfo id="person_WE_s.1" depart="36.50" type="DEFAULT_PEDTYPE" speedFactor="1.08" duration="191.50" waitingTime="0.00" timeLoss="52.34" traveltime="191.50">
        <walk depart="36.50" departPos="100.00" arrival="228.00" arrivalPos="93.20" duration="191.50" routeLength="209.26" timeLoss="52.34" maxSpeed="1.50"/>
    </personinfo>
    <personinfo id="person_NW_diag.1" depart="40.50" type="DEFAULT_PEDTYPE" speedFactor="0.81" duration="188.50" waitingTime="0.00" timeLoss="18.18" traveltime="188.50">
        <walk depart="40.50" departPos="100.00" arrival="229.00" arrivalPos="93.20" duration="188.50" routeLength="190.90" timeLoss="18.18" maxSpeed="1.12"/>
    </personinfo>
    <tripinfo id="SE.4" depart="182.00" departLane="3_1_1" departPos="5.10" departSpeed="0.00" departDelay="0.18" arrival="229.00" arrivalLane="1_4_1" arrivalPos="186.40" arrivalSpeed="9.64" duration="47.00" routeLength="379.93" waitingTime="2.50" waitingCount="1" stopTime="0.00" timeLoss="6.87" rerouteNo="0" devices="tripinfo_SE.4 routing_SE.4" vType="DEFAULT_VEHTYPE" speedFactor="0.86" vaporized=""/>
    <personinfo id="person_EW_n.0" depart="2.50" type="DEFAULT_PEDTYPE" speedFactor="1.09" duration="228.00" waitingTime="0.00" timeLoss="89.04" traveltime="228.00">
        <walk depart="2.50" departPos="100.00" arrival="230.50" arrivalPos="93.20" duration="228.00" routeLength="210.56" timeLoss="89.04" maxSpeed="1.52"/>
    </personinfo>
    <personinfo id="person_EW_n.5" depart="68.00" type="DEFAULT_PEDTYPE" speedFactor="1.14" duration="163.00" waitingTime="0.00" timeLoss="30.47" traveltime="163.00">
        <walk depart="68.00" departPos="100.00" arrival="231.00" arrivalPos="93.20" duration="163.00" routeLength="210.56" timeLoss="30.47" maxSpeed="1.59"/>
    </personinfo>
    <personinfo id="person_WE_s.3" depart="52.00" type="DEFAULT_PEDTYPE" speedFactor="1.05" duration="180.00" waitingTime="0.00" timeLoss="35.93" traveltime="180.00">
        <walk depart="52.00" departPos="100.00" arrival="232.00" arrivalPos="93.20" duration="180.00" routeLength="209.26" timeLoss="35.93" maxSpeed="1.45"/>
    </personinfo>
    <personinfo id="person_NE_diag.0" depart="20.50" type="DEFAULT_PEDTYPE" speedFactor="1.02" duration="213.50" waitingTime="0.00" timeLoss="54.92" traveltime="213.50">
        <walk depart="20.50" departPos="100.00" arrival="234.00" arrivalPos="93.20" duration="213.50" routeLength="225.71" timeLoss="54.92" maxSpeed="1.42"/>
    </personinfo>
    <personinfo id="person_EW_n.4" depart="65.00" type="DEFAULT_PEDTYPE" speedFactor="1.10" duration="169.50" waitingTime="0.00" timeLoss="31.33" traveltime="169.50">
        <walk depart="65.00" departPos="100.00" arrival="234.50" arrivalPos="93.20" duration="169.50" routeLength="210.56" timeLoss="31.33" maxSpeed="1.52"/>
    </personinfo>
    <personinfo id="person_WE_n.1" depart="58.00" type="DEFAULT_PEDTYPE" speedFactor="1.03" duration="177.00" waitingTime="0.00" timeLoss="20.87" traveltime="177.00">
        <walk depart="58.00" departPos="100.00" arrival="235.00" arrivalPos="93.20" duration="177.00" routeLength="224.16" timeLoss="20.87" maxSpeed="1.44"/>
    </personinfo>
    <personinfo id="person_WE_n.0" depart="14.50" type="DEFAULT_PEDTYPE" speedFactor="1.08" duration="220.50" waitingTime="0.00" timeLoss="71.41" traveltime="220.50">
        <walk depart="14.50" departPos="100.00" arrival="235.00" arrivalPos="93.20" duration="220.50" routeLength="224.16" timeLoss="71.41" maxSpeed="1.50"/>
    </personinfo>
    <personinfo id="person_WE_n.3" depart="78.00" type="DEFAULT_PEDTYPE" speedFactor="1.15" duration="157.50" waitingTime="0.00" timeLoss="16.91" traveltime="157.50">
        <walk depart="78.00" departPos="100.00" arrival="235.50" arrivalPos="93.20" duration="157.50" routeLength="224.16" timeLoss="16.91" maxSpeed="1.59"/>
    </personinfo>
    <personinfo id="person_NS_e.0" depart="36.00" type="DEFAULT_PEDTYPE" speedFactor="0.87" duration="201.00" waitingTime="0.00" timeLoss="20.34" traveltime="201.00">
        <walk depart="36.00" departPos="100.00" arrival="237.00" arrivalPos="94.80" duration="201.00" routeLength="219.53" timeLoss="20.34" maxSpeed="1.22"/>
    </personinfo>
    <personinfo id="person_WE_s.0" depart="1.50" type="DEFAULT_PEDTYPE" speedFactor="0.98" duration="237.00" waitingTime="0.00" timeLoss="82.50" traveltime="237.00">
        <walk depart="1.50" departPos="100.00" arrival="238.50" arrivalPos="93.20" duration="237.00" routeLength="209.26" timeLoss="82.50" maxSpeed="1.35"/>
    </personinfo>
    <personinfo id="person_WE_s.4" depart="83.00" type="DEFAULT_PEDTYPE" speedFactor="1.08" duration="156.00" waitingTime="0.00" timeLoss="16.20" traveltime="156.00">
        <walk depart="83.00" departPos="100.00" arrival="239.00" arrivalPos="93.20" duration="156.00" routeLength="209.26" timeLoss="16.20" maxSpeed="1.50"/>
    </personinfo>
    <tripinfo id="NS.13" depart="203.50" departLane="5_1_2" departPos="5.10" departSpeed="0.00" departDelay="0.38" arrival="239.50" arrivalLane="1_3_1" arrivalPos="189.60" arrivalSpeed="12.37" duration="36.00" routeLength="395.22" waitingTime="0.00" waitingCount="0" stopTime="0.00" timeLoss="3.77" rerouteNo="0" devices="tripinfo_NS.13 routing_NS.13" vType="DEFAULT_VEHTYPE" speedFactor="1.10" vaporized=""/>
    <tripinfo id="SN.9" depart="205.00" departLane="3_1_1" departPos="5.10" departSpeed="0.00" departDelay="0.46" arrival="245.00" arrivalLane="1_5_1" arrivalPos="189.60" arrivalSpeed="10.33" duration="40.00" routeLength="395.22" waitingTime="0.00" waitingCount="0" stopTime="0.00" timeLoss="3.84" rerouteNo="0" devices="tripinfo_SN.9 routing_SN.9" vType="DEFAULT_VEHTYPE" speedFactor="0.98" vaporized=""/>
    <tripinfo id="NW.5" depart="208.50" departLane="5_1_1" departPos="5.10" departSpeed="0.00" departDelay="0.17" arrival="247.50" arrivalLane="1_2_1" arrivalPos="186.40" arrivalSpeed="10.84" duration="39.00" routeLength="382.62" waitingTime="0.00" waitingCount="0" stopTime="0.00" timeLoss="2.56" rerouteNo="0" devices="tripinfo_NW.5 routing_NW.5" vType="DEFAULT_VEHTYPE" speedFactor="0.97" vaporized=""/>