<?xml version="1.0" encoding="UTF-8"?>

<!-- generated on 2025-03-17 13:28:46 by Eclipse SUMO GUI Version 1.22.0
<sumoConfiguration xmlns:xsi="http://www.w3.org/2001/XMLSchema-instance" xsi:noNamespaceSchemaLocation="http://sumo.dlr.de/xsd/sumoConfiguration.xsd">

    <input>
        <net-file value="C:\Users\chris\PycharmProjects\UW_CET593_project2\environment/network_model/UW_intersection_pedestrian_X.net.xml"/>
        <route-files value="C:\Users\chris\PycharmProjects\UW_CET593_project2\environment/network_model/UW_IntersectionNormalDemand.rou.xml"/>
        <additional-files value="C:\Users\chris\PycharmProjects\UW_CET593_project2\environment/network_model/UW_intersection_signalActuated.add.xml"/>
    </input>

    <output>
        <queue-output value="C:\Users\chris\PycharmProjects\UW_CET593_project2\environment/simulation_data/UW_intersection/queues_actuated_symmetric_pene_100.xml"/>
        <tripinfo-output value="C:\Users\chris\PycharmProjects\UW_CET593_project2\environment/simulation_data/UW_intersection/tripinfo_actuated_symmetric_pene_100.xml"/>
    </output>

    <time>
        <begin value="0"/>
        <step-length value="0.5"/>
    </time>

    <processing>
        <waiting-time-memory value="1000"/>
    </processing>

    <report>
        <verbose value="true"/>
        <no-step-log value="true"/>
    </report>

    <traci_server>
        <remote-port value="62506"/>
    </traci_server>

    <gui_only>
        <start value="true"/>
    </gui_only>

</sumoConfiguration>
-->

<tripinfos xmlns:xsi="http://www.w3.org/2001/XMLSchema-instance" xsi:noNamespaceSchemaLocation="http://sumo.dlr.de/xsd/tripinfo_file.xsd">
    <tripinfo id="NE.0" depart="0.00" departLane="5_1_3" departPos="5.10" departSpeed="0.00" departDelay="0.00" arrival="41.50" arrivalLane="1_4_2" arrivalPos="186.40" arrivalSpeed="10.07" duration="41.50" routeLength="392.89" waitingTime="0.00" waitingCount="0" stopTime="0.00" timeLoss="4.04" rerouteNo="0" devices="tripinfo_NE.0 routing_NE.0" vType="DEFAULT_VEHTYPE" speedFactor="0.96" vaporized=""/>
    <tripinfo id="SW.0" depart="0.00" departLane="3_1_3" departPos="5.10" departSpeed="0.00" departDelay="0.00" arrival="43.50" arrivalLane="1_2_1" arrivalPos="186.40" arrivalSpeed="9.62" duration="43.50" routeLength="392.89" waitingTime="0.00" waitingCount="0" stopTime="0.00" timeLoss="3.99" rerouteNo="0" devices="tripinfo_SW.0 routing_SW.0" vType="DEFAULT_VEHTYPE" speedFactor="0.90" vaporized=""/>
    <tripinfo id="NS.0" depart="0.00" departLane="5_1_1" departPos="5.10" departSpeed="0.00" departDelay="0.00" arrival="44.50" arrivalLane="1_3_1" arrivalPos="189.60" arrivalSpeed="11.80" duration="44.50" routeLength="395.22" waitingTime="3.50" waitingCount="1" stopTime="0.00" timeLoss="11.01" rerouteNo="0" devices="tripinfo_NS.0 routing_NS.0" vType="DEFAULT_VEHTYPE" speedFactor="1.06" vaporized=""/>
    <tripinfo id="SE.0" depart="0.00" departLane="3_1_1" departPos="5.10" departSpeed="0.00" departDelay="0.00" arrival="44.50" arrivalLane="1_4_1" arrivalPos="186.40" arrivalSpeed="10.59" duration="44.50" routeLength="379.93" waitingTime="3.00" waitingCount="1" stopTime="0.00" timeLoss="9.41" rerouteNo="0" devices="tripinfo_SE.0 routing_SE.0" vType="DEFAULT_VEHTYPE" speedFactor="0.99" vaporized=""/>
    <tripinfo id="SN.0" depart="0.00" departLane="3_1_2" departPos="5.10" departSpeed="0.00" departDelay="0.00" arrival="45.00" arrivalLane="1_5_1" arrivalPos="189.60" arrivalSpeed="11.66" duration="45.00" routeLength="395.22" waitingTime="3.50" waitingCount="1" stopTime="0.00" timeLoss="11.14" rerouteNo="0" devices="tripinfo_SN.0 routing_SN.0" vType="DEFAULT_VEHTYPE" speedFactor="1.05" vaporized=""/>
    <tripinfo id="NW.0" depart="3.00" departLane="5_1_1" departPos="5.10" departSpeed="0.00" departDelay="3.00" arrival="47.00" arrivalLane="1_2_1" arrivalPos="186.40" arrivalSpeed="10.85" duration="44.00" routeLength="382.62" waitingTime="0.00" waitingCount="0" stopTime="0.00" timeLoss="8.49" rerouteNo="0" devices="tripinfo_NW.0 routing_NW.0" vType="DEFAULT_VEHTYPE" speedFactor="0.99" vaporized=""/>
    <tripinfo id="WE.0" depart="0.00" departLane="2_1_1" departPos="5.10" departSpeed="0.00" departDelay="0.00" arrival="52.50" arrivalLane="1_4_1" arrivalPos="186.40" arrivalSpeed="11.66" duration="52.50" routeLength="395.13" waitingTime="12.50" waitingCount="1" stopTime="0.00" timeLoss="19.85" rerouteNo="0" devices="tripinfo_WE.0 routing_WE.0" vType="DEFAULT_VEHTYPE" speedFactor="1.09" vaporized=""/>
    <tripinfo id="EN.0" depart="0.00" departLane="4_1_1" departPos="5.10" departSpeed="0.00" departDelay="0.00" arrival="53.00" arrivalLane="1_5_1" arrivalPos="189.60" arrivalSpeed="10.78" duration="53.00" routeLength="382.62" waitingTime="11.00" waitingCount="1" stopTime="0.00" timeLoss="17.66" rerouteNo="0" devices="tripinfo_EN.0 routing_EN.0" vType="DEFAULT_VEHTYPE" speedFactor="0.98" vaporized=""/>
    <tripinfo id="WN.0" depart="2.50" departLane="2_1_1" departPos="5.10" departSpeed="0.00" departDelay="2.50" arrival="54.00" arrivalLane="1_5_2" arrivalPos="189.60" arrivalSpeed="12.43" duration="51.50" routeLength="392.90" waitingTime="8.50" waitingCount="1" stopTime="0.00" timeLoss="19.73" rerouteNo="0" devices="tripinfo_WN.0 routing_WN.0" vType="DEFAULT_VEHTYPE" speedFactor="1.11" vaporized=""/>
    <tripinfo id="WS.0" depart="5.00" departLane="2_1_1" departPos="5.10" departSpeed="0.00" departDelay="5.00" arrival="56.50" arrivalLane="1_3_1" arrivalPos="189.60" arrivalSpeed="11.89" duration="51.50" routeLength="385.10" waitingTime="6.50" waitingCount="1" stopTime="0.00" timeLoss="18.61" rerouteNo="0" devices="tripinfo_WS.0 routing_WS.0" vType="DEFAULT_VEHTYPE" speedFactor="1.07" vaporized=""/>
    <tripinfo id="ES.0" depart="0.00" departLane="4_1_2" departPos="5.10" departSpeed="0.00" departDelay="0.00" arrival="57.50" arrivalLane="1_3_2" arrivalPos="189.60" arrivalSpeed="11.23" duration="57.50" routeLength="392.89" waitingTime="13.00" waitingCount="2" stopTime="0.00" timeLoss="23.17" rerouteNo="0" devices="tripinfo_ES.0 routing_ES.0" vType="DEFAULT_VEHTYPE" speedFactor="1.04" vaporized=""/>
    <tripinfo id="SN.1" depart="27.50" departLane="3_1_1" departPos="5.10" departSpeed="0.00" departDelay="0.23" arrival="64.00" arrivalLane="1_5_1" arrivalPos="189.60" arrivalSpeed="12.33" duration="36.50" routeLength="395.22" waitingTime="0.00" waitingCount="0" stopTime="0.00" timeLoss="5.51" rerouteNo="0" devices="tripinfo_SN.1 routing_SN.1" vType="DEFAULT_VEHTYPE" speedFactor="1.15" vaporized=""/>
    <tripinfo id="NS.1" depart="19.00" departLane="5_1_2" departPos="5.10" departSpeed="0.00" departDelay="0.25" arrival="65.00" arrivalLane="1_3_1" arrivalPos="189.60" arrivalSpeed="13.07" duration="46.00" routeLength="395.22" waitingTime="7.50" waitingCount="1" stopTime="0.00" timeLoss="16.47" rerouteNo="0" devices="tripinfo_NS.1 routing_NS.1" vType="DEFAULT_VEHTYPE" speedFactor="1.21" vaporized=""/>
    <tripinfo id="EW.0" depart="3.00" departLane="4_1_2" departPos="5.10" departSpeed="0.00" departDelay="3.00" arrival="76.00" arrivalLane="1_2_1" arrivalPos="186.40" arrivalSpeed="10.58" duration="73.00" routeLength="394.90" waitingTime="24.00" waitingCount="2" stopTime="0.00" timeLoss="36.78" rerouteNo="0" devices="tripinfo_EW.0 routing_EW.0" vType="DEFAULT_VEHTYPE" speedFactor="0.98" vaporized=""/>
    <tripinfo id="NS.2" depart="37.50" departLane="5_1_2" departPos="5.10" departSpeed="0.00" departDelay="0.00" arrival="86.00" arrivalLane="1_3_1" arrivalPos="189.60" arrivalSpeed="12.25" duration="48.50" routeLength="395.22" waitingTime="8.50" waitingCount="1" stopTime="0.00" timeLoss="16.94" rerouteNo="0" devices="tripinfo_NS.2 routing_NS.2" vType="DEFAULT_VEHTYPE" speedFactor="1.13" vaporized=""/>
    <tripinfo id="SN.2" depart="55.00" departLane="3_1_2" departPos="5.10" departSpeed="0.00" departDelay="0.45" arrival="89.50" arrivalLane="1_5_1" arrivalPos="189.60" arrivalSpeed="12.71" duration="34.50" routeLength="395.22" waitingTime="0.00" waitingCount="0" stopTime="0.00" timeLoss="3.55" rerouteNo="0" devices="tripinfo_SN.2 routing_SN.2" vType="DEFAULT_VEHTYPE" speedFactor="1.16" vaporized=""/>
    <tripinfo id="NW.1" depart="50.00" departLane="5_1_1" departPos="5.10" departSpeed="0.00" departDelay="0.00" arrival="90.50" arrivalLane="1_2_1" arrivalPos="186.40" arrivalSpeed="10.56" duration="40.50" routeLength="382.62" waitingTime="0.00" waitingCount="0" stopTime="0.00" timeLoss="4.40" rerouteNo="0" devices="tripinfo_NW.1 routing_NW.1" vType="DEFAULT_VEHTYPE" speedFactor="0.98" vaporized=""/>
    <tripinfo id="SE.1" depart="55.00" departLane="3_1_1" departPos="5.10" departSpeed="0.00" departDelay="0.46" arrival="100.50" arrivalLane="1_4_1" arrivalPos="186.40" arrivalSpeed="12.18" duration="45.50" routeLength="379.93" waitingTime="7.50" waitingCount="1" stopTime="0.00" timeLoss="14.75" rerouteNo="0" devices="tripinfo_SE.1 routing_SE.1" vType="DEFAULT_VEHTYPE" speedFactor="1.13" vaporized=""/>
    <tripinfo id="WE.1" depart="50.00" departLane="2_1_1" departPos="5.10" departSpeed="0.00" departDelay="0.00" arrival="103.00" arrivalLane="1_4_1" arrivalPos="186.40" arrivalSpeed="12.61" duration="53.00" routeLength="395.13" waitingTime="13.00" waitingCount="2" stopTime="0.00" timeLoss="22.77" rerouteNo="0" devices="tripinfo_WE.1 routing_WE.1" vType="DEFAULT_VEHTYPE" speedFactor="1.18" vaporized=""/>
    <tripinfo id="NS.3" depart="56.50" departLane="5_1_2" departPos="5.10" departSpeed="0.00" departDelay="0.25" arrival="116.00" arrivalLane="1_3_1" arrivalPos="189.60" arrivalSpeed="9.46" duration="59.50" routeLength="395.22" waitingTime="12.00" waitingCount="1" stopTime="0.00" timeLoss="19.07" rerouteNo="0" devices="tripinfo_NS.3 routing_NS.3" vType="DEFAULT_VEHTYPE" speedFactor="0.87" vaporized=""/>
    <tripinfo id="NS.4" depart="75.00" departLane="5_1_2" departPos="5.10" departSpeed="0.00" departDelay="0.00" arrival="121.50" arrivalLane="1_3_1" arrivalPos="189.60" arrivalSpeed="9.00" duration="46.50" routeLength="395.22" waitingTime="0.00" waitingCount="0" stopTime="0.00" timeLoss="3.39" rerouteNo="0" devices="tripinfo_NS.4 routing_NS.4" vType="DEFAULT_VEHTYPE" speedFactor="0.82" vaporized=""/>
    <tripinfo id="WS.1" depart="67.00" departLane="2_1_1" departPos="5.10" departSpeed="0.00" departDelay="0.33" arrival="127.50" arrivalLane="1_3_1" arrivalPos="189.60" arrivalSpeed="9.22" duration="60.50" routeLength="385.10" waitingTime="13.50" waitingCount="1" stopTime="0.00" timeLoss="20.23" rerouteNo="0" devices="tripinfo_WS.1 routing_WS.1" vType="DEFAULT_VEHTYPE" speedFactor="0.87" vaporized=""/>
    <tripinfo id="SN.3" depart="82.00" departLane="3_1_1" departPos="5.10" departSpeed="0.00" departDelay="0.18" arrival="139.00" arrivalLane="1_5_1" arrivalPos="189.60" arrivalSpeed="10.09" duration="57.00" routeLength="395.22" waitingTime="12.00" waitingCount="1" stopTime="0.00" timeLoss="18.96" rerouteNo="0" devices="tripinfo_SN.3 routing_SN.3" vType="DEFAULT_VEHTYPE" speedFactor="0.94" vaporized=""/>
    <tripinfo id="NS.5" depart="94.00" departLane="5_1_2" departPos="5.10" departSpeed="0.00" departDelay="0.25" arrival="141.50" arrivalLane="1_3_1" arrivalPos="189.60" arrivalSpeed="11.24" duration="47.50" routeLength="395.22" waitingTime="5.00" waitingCount="1" stopTime="0.00" timeLoss="12.40" rerouteNo="0" devices="tripinfo_NS.5 routing_NS.5" vType="DEFAULT_VEHTYPE" speedFactor="1.01" vaporized=""/>
    <tripinfo id="NW.2" depart="100.00" departLane="5_1_1" departPos="5.10" departSpeed="0.00" departDelay="0.00" arrival="144.50" arrivalLane="1_2_1" arrivalPos="186.40" arrivalSpeed="9.84" duration="44.50" routeLength="382.62" waitingTime="0.00" waitingCount="0" stopTime="0.00" timeLoss="6.57" rerouteNo="0" devices="tripinfo_NW.2 routing_NW.2" vType="DEFAULT_VEHTYPE" speedFactor="0.93" vaporized=""/>
    <personinfo id="person_NS_e.0" depart="5.50" type="DEFAULT_PEDTYPE" speedFactor="1.25" duration="140.50" waitingTime="0.00" timeLoss="14.07" traveltime="140.50">
        <walk depart="5.50" departPos="100.00" arrival="146.00" arrivalPos="94.80" duration="140.50" routeLength="219.53" timeLoss="14.07" maxSpeed="1.74"/>
    </personinfo>
    <tripinfo id="WE.2" depart="100.00" departLane="2_1_1" departPos="5.10" departSpeed="0.00" departDelay="0.00" arrival="153.00" arrivalLane="1_4_1" arrivalPos="186.40" arrivalSpeed="10.49" duration="53.00" routeLength="395.13" waitingTime="6.00" waitingCount="1" stopTime="0.00" timeLoss="15.93" rerouteNo="0" devices="tripinfo_WE.2 routing_WE.2" vType="DEFAULT_VEHTYPE" speedFactor="0.95" vaporized=""/>
    <personinfo id="person_NW_diag.0" depart="4.50" type="DEFAULT_PEDTYPE" speedFactor="0.98" duration="156.50" waitingTime="0.00" timeLoss="16.83" traveltime="156.50">
        <walk depart="4.50" departPos="100.00" arrival="161.00" arrivalPos="93.20" duration="156.50" routeLength="190.90" timeLoss="16.83" maxSpeed="1.37"/>
    </personinfo>
    <tripinfo id="NS.6" depart="112.50" departLane="5_1_2" departPos="5.10" departSpeed="0.00" departDelay="0.00" arrival="162.50" arrivalLane="1_3_1" arrivalPos="189.60" arrivalSpeed="10.25" duration="50.00" routeLength="395.22" waitingTime="5.50" waitingCount="1" stopTime="0.00" timeLoss="12.97" rerouteNo="0" devices="tripinfo_NS.6 routing_NS.6" vType="DEFAULT_VEHTYPE" speedFactor="0.96" vaporized=""/>
    <tripinfo id="SN.4" depart="109.50" departLane="3_1_2" departPos="5.10" departSpeed="0.00" departDelay="0.41" arrival="163.50" arrivalLane="1_5_1" arrivalPos="189.60" arrivalSpeed="9.48" duration="54.00" routeLength="395.22" waitingTime="7.50" waitingCount="1" stopTime="0.00" timeLoss="14.63" rerouteNo="0" devices="tripinfo_SN.4 routing_SN.4" vType="DEFAULT_VEHTYPE" speedFactor="0.90" vaporized=""/>
    <tripinfo id="SE.2" depart="109.50" departLane="3_1_1" departPos="5.10" departSpeed="0.00" departDelay="0.41" arrival="170.50" arrivalLane="1_4_1" arrivalPos="186.40" arrivalSpeed="10.97" duration="61.00" routeLength="379.93" waitingTime="17.50" waitingCount="2" stopTime="0.00" timeLoss="26.32" rerouteNo="0" devices="tripinfo_SE.2 routing_SE.2" vType="DEFAULT_VEHTYPE" speedFactor="1.00" vaporized=""/>
    <tripinfo id="WS.2" depart="133.50" departLane="2_1_1" departPos="5.10" departSpeed="0.00" departDelay="0.17" arrival="172.50" arrivalLane="1_3_1" arrivalPos="189.60" arrivalSpeed="10.95" duration="39.00" routeLength="385.10" waitingTime="0.00" waitingCount="0" stopTime="0.00" timeLoss="4.54" rerouteNo="0" devices="tripinfo_WS.2 routing_WS.2" vType="DEFAULT_VEHTYPE" speedFactor="1.01" vaporized=""/>
    <personinfo id="person_WE_s.0" depart="2.00" type="DEFAULT_PEDTYPE" speedFactor="0.98" duration="171.00" waitingTime="0.00" timeLoss="16.50" traveltime="171.00">
        <walk depart="2.00" departPos="100.00" arrival="173.00" arrivalPos="93.20" duration="171.00" routeLength="209.26" timeLoss="16.50" maxSpeed="1.35"/>
    </personinfo>
    <personinfo id="person_NW_diag.1" depart="20.50" type="DEFAULT_PEDTYPE" speedFactor="1.00" duration="154.00" waitingTime="0.00" timeLoss="15.99" traveltime="154.00">
        <walk depart="20.50" departPos="100.00" arrival="174.50" arrivalPos="93.20" duration="154.00" routeLength="190.90" timeLoss="15.99" maxSpeed="1.38"/>
    </personinfo>
    <personinfo id="person_SW_diag.0" depart="30.00" type="DEFAULT_PEDTYPE" speedFactor="1.30" duration="147.00" waitingTime="0.00" timeLoss="20.43" traveltime="147.00">
        <walk depart="30.00" departPos="100.00" arrival="177.00" arrivalPos="93.20" duration="147.00" routeLength="228.50" timeLoss="20.43" maxSpeed="1.81"/>
    </personinfo>
    <personinfo id="person_SN_w.0" depart="3.00" type="DEFAULT_PEDTYPE" speedFactor="1.00" duration="175.50" waitingTime="0.00" timeLoss="18.98" traveltime="175.50">
        <walk depart="3.00" departPos="100.00" arrival="178.50" arrivalPos="94.80" duration="175.50" routeLength="217.89" timeLoss="18.98" maxSpeed="1.39"/>
    </personinfo>
    <personinfo id="person_SE_diag.0" depart="25.50" type="DEFAULT_PEDTYPE" speedFactor="0.96" duration="156.50" waitingTime="0.00" timeLoss="16.37" traveltime="156.50">
        <walk depart="25.50" departPos="100.00" arrival="182.00" arrivalPos="93.20" duration="156.50" routeLength="187.66" timeLoss="16.37" maxSpeed="1.34"/>
    </personinfo>
    <tripinfo id="NS.7" depart="131.50" departLane="5_1_2" departPos="5.10" departSpeed="0.00" departDelay="0.25" arrival="184.50" arrivalLane="1_3_1" arrivalPos="189.60" arrivalSpeed="11.30" duration="53.00" routeLength="395.22" waitingTime="10.50" waitingCount="1" stopTime="0.00" timeLoss="18.23" rerouteNo="0" devices="tripinfo_NS.7 routing_NS.7" vType="DEFAULT_VEHTYPE" speedFactor="1.02" vaporized=""/>
    <tripinfo id="SN.5" depart="136.50" departLane="3_1_1" departPos="5.10" departSpeed="0.00" departDelay="0.14" arrival="186.50" arrivalLane="1_5_1" arrivalPos="189.60" arrivalSpeed="9.96" duration="50.00" routeLength="395.22" waitingTime="4.50" waitingCount="1" stopTime="0.00" timeLoss="12.10" rerouteNo="0" devices="tripinfo_SN.5 routing_SN.5" vType="DEFAULT_VEHTYPE" speedFactor="0.93" vaporized=""/>
    <tripinfo id="NE.1" depart="150.00" departLane="5_1_3" departPos="5.10" departSpeed="0.00" departDelay="0.00" arrival="186.50" arrivalLane="1_4_2" arrivalPos="186.40" arrivalSpeed="12.97" duration="36.50" routeLength="392.89" waitingTime="0.00" waitingCount="0" stopTime="0.00" timeLoss="5.60" rerouteNo="0" devices="tripinfo_NE.1 routing_NE.1" vType="DEFAULT_VEHTYPE" speedFactor="1.16" vaporized=""/>
    <tripinfo id="EN.1" depart="150.00" departLane="4_1_1" departPos="5.10" departSpeed="0.00" departDelay="0.00" arrival="189.00" arrivalLane="1_5_1" arrivalPos="189.60" arrivalSpeed="12.64" duration="39.00" routeLength="382.62" waitingTime="2.50" waitingCount="1" stopTime="0.00" timeLoss="9.49" rerouteNo="0" devices="tripinfo_EN.1 routing_EN.1" vType="DEFAULT_VEHTYPE" speedFactor="1.18" vaporized=""/>
    <personinfo id="person_EW_n.1" depart="17.50" type="DEFAULT_PEDTYPE" speedFactor="1.09" duration="172.50" waitingTime="0.00" timeLoss="33.54" traveltime="172.50">
        <walk depart="17.50" departPos="100.00" arrival="190.00" arrivalPos="93.20" duration="172.50" routeLength="210.56" timeLoss="33.54" maxSpeed="1.52"/>
    </personinfo>
    <tripinfo id="WE.3" depart="150.00" departLane="2_1_1" departPos="5.10" departSpeed="0.00" departDelay="0.00" arrival="190.50" arrivalLane="1_4_1" arrivalPos="186.40" arrivalSpeed="12.57" duration="40.50" routeLength="395.13" waitingTime="1.50" waitingCount="1" stopTime="0.00" timeLoss="10.04" rerouteNo="0" devices="tripinfo_WE.3 routing_WE.3" vType="DEFAULT_VEHTYPE" speedFactor="1.17" vaporized=""/>
    <tripinfo id="EW.1" depart="150.00" departLane="4_1_2" departPos="5.10" departSpeed="0.00" departDelay="0.00" arrival="193.50" arrivalLane="1_2_1" arrivalPos="186.40" arrivalSpeed="9.50" duration="43.50" routeLength="394.90" waitingTime="0.00" waitingCount="0" stopTime="0.00" timeLoss="3.69" rerouteNo="0" devices="tripinfo_EW.1 routing_EW.1" vType="DEFAULT_VEHTYPE" speedFactor="0.89" vaporized=""/>
    <personinfo id="person_SE_diag.1" depart="44.00" type="DEFAULT_PEDTYPE" speedFactor="1.00" duration="151.00" waitingTime="0.00" timeLoss="15.37" traveltime="151.00">
        <walk depart="44.00" departPos="100.00" arrival="195.00" arrivalPos="93.20" duration="151.00" routeLength="187.66" timeLoss="15.37" maxSpeed="1.38"/>
    </personinfo>
    <personinfo id="person_WE_n.0" depart="10.00" type="DEFAULT_PEDTYPE" speedFactor="1.00" duration="187.50" waitingTime="0.00" timeLoss="25.62" traveltime="187.50">
        <walk depart="10.00" departPos="100.00" arrival="197.50" arrivalPos="93.20" duration="187.50" routeLength="224.16" timeLoss="25.62" maxSpeed="1.38"/>
    </personinfo>
    <personinfo id="person_NW_diag.2" depart="32.00" type="DEFAULT_PEDTYPE" speedFactor="0.92" duration="166.50" waitingTime="0.00" timeLoss="17.50" traveltime="166.50">
        <walk depart="32.00" departPos="100.00" arrival="198.50" arrivalPos="93.20" duration="166.50" routeLength="190.90" timeLoss="17.50" maxSpeed="1.28"/>
    </personinfo>
    <personinfo id="person_NW_diag.3" depart="56.00" type="DEFAULT_PEDTYPE" speedFactor="1.06" duration="144.00" waitingTime="0.00" timeLoss="14.87" traveltime="144.00">
        <walk depart="56.00" departPos="100.00" arrival="200.00" arrivalPos="93.20" duration="144.00" routeLength="190.90" timeLoss="14.87" maxSpeed="1.48"/>
    </personinfo>
    <tripinfo id="SE.3" depart="164.00" departLane="3_1_1" departPos="5.10" departSpeed="0.00" departDelay="0.37" arrival="200.50" arrivalLane="1_4_1" arrivalPos="186.40" arrivalSpeed="11.80" duration="36.50" routeLength="379.93" waitingTime="0.00" waitingCount="0" stopTime="0.00" timeLoss="5.19" rerouteNo="0" devices="tripinfo_SE.3 routing_SE.3" vType="DEFAULT_VEHTYPE" speedFactor="1.11" vaporized=""/>
    <personinfo id="person_NS_e.2" depart="45.50" type="DEFAULT_PEDTYPE" speedFactor="1.13" duration="156.50" waitingTime="0.00" timeLoss="16.31" traveltime="156.50">
        <walk depart="45.50" departPos="100.00" arrival="202.00" arrivalPos="94.80" duration="156.50" routeLength="219.53" timeLoss="16.31" maxSpeed="1.57"/>
    </personinfo>
    <personinfo id="person_EW_n.0" depart="14.50" type="DEFAULT_PEDTYPE" speedFactor="0.95" duration="188.00" waitingTime="0.00" timeLoss="28.59" traveltime="188.00">
        <walk depart="14.50" departPos="100.00" arrival="202.50" arrivalPos="93.20" duration="188.00" routeLength="210.56" timeLoss="28.59" maxSpeed="1.32"/>
    </personinfo>
    <personinfo id="person_WE_s.2" depart="51.50" type="DEFAULT_PEDTYPE" speedFactor="1.20" duration="152.00" waitingTime="0.00" timeLoss="26.49" traveltime="152.00">
        <walk depart="51.50" departPos="100.00" arrival="203.50" arrivalPos="93.20" duration="152.00" routeLength="209.26" timeLoss="26.49" maxSpeed="1.67"/>
    </personinfo>
    <tripinfo id="NW.3" depart="150.00" departLane="5_1_1" departPos="5.10" departSpeed="0.00" departDelay="0.00" arrival="204.00" arrivalLane="1_2_1" arrivalPos="186.40" arrivalSpeed="10.79" duration="54.00" routeLength="382.62" waitingTime="11.00" waitingCount="1" stopTime="0.00" timeLoss="17.82" rerouteNo="0" devices="tripinfo_NW.3 routing_NW.3" vType="DEFAULT_VEHTYPE" speedFactor="0.96" vaporized=""/>
    <tripinfo id="NS.8" depart="150.00" departLane="5_1_2" departPos="5.10" departSpeed="0.00" departDelay="0.00" arrival="204.50" arrivalLane="1_3_1" arrivalPos="189.60" arrivalSpeed="10.85" duration="54.50" routeLength="395.22" waitingTime="12.00" waitingCount="1" stopTime="0.00" timeLoss="19.59" rerouteNo="0" devices="tripinfo_NS.8 routing_NS.8" vType="DEFAULT_VEHTYPE" speedFactor="1.02" vaporized=""/>
    <personinfo id="person_SN_e.0" depart="43.00" type="DEFAULT_PEDTYPE" speedFactor="1.03" duration="162.00" waitingTime="0.00" timeLoss="15.81" traveltime="162.00">
        <walk depart="43.00" departPos="100.00" arrival="205.00" arrivalPos="94.80" duration="162.00" routeLength="209.13" timeLoss="15.81" maxSpeed="1.43"/>
    </personinfo>
    <personinfo id="person_NW_diag.4" depart="67.00" type="DEFAULT_PEDTYPE" speedFactor="1.09" duration="140.50" waitingTime="0.00" timeLoss="14.63" traveltime="140.50">
        <walk depart="67.00" departPos="100.00" arrival="207.50" arrivalPos="93.20" duration="140.50" routeLength="190.90" timeLoss="14.63" maxSpeed="1.52"/>
    </personinfo>
    <tripinfo id="NS.9" depart="169.00" departLane="5_1_2" departPos="5.10" departSpeed="0.00" departDelay="0.25" arrival="208.00" arrivalLane="1_3_1" arrivalPos="189.60" arrivalSpeed="11.09" duration="39.00" routeLength="395.22" waitingTime="0.00" waitingCount="0" stopTime="0.00" timeLoss="3.51" rerouteNo="0" devices="tripinfo_NS.9 routing_NS.9" vType="DEFAULT_VEHTYPE" speedFactor="1.00" vaporized=""/>
    <personinfo id="person_NE_diag.1" depart="28.50" type="DEFAULT_PEDTYPE" speedFactor="1.02" duration="180.00" waitingTime="0.00" timeLoss="19.20" traveltime="180.00">
        <walk depart="28.50" departPos="100.00" arrival="208.50" arrivalPos="93.20" duration="180.00" routeLength="228.35" timeLoss="19.20" maxSpeed="1.42"/>
    </personinfo>
    <tripinfo id="SN.6" depart="164.00" departLane="3_1_2" departPos="5.10" departSpeed="0.00" departDelay="0.36" arrival="208.50" arrivalLane="1_5_1" arrivalPos="189.60" arrivalSpeed="9.27" duration="44.50" routeLength="395.22" waitingTime="0.00" waitingCount="0" stopTime="0.00" timeLoss="3.63" rerouteNo="0" devices="tripinfo_SN.6 routing_SN.6" vType="DEFAULT_VEHTYPE" speedFactor="0.86" vaporized=""/>
    <personinfo id="person_WE_s.1" depart="43.50" type="DEFAULT_PEDTYPE" speedFactor="1.08" duration="168.00" waitingTime="0.00" timeLoss="28.84" traveltime="168.00">
        <walk depart="43.50" departPos="100.00" arrival="211.50" arrivalPos="93.20" duration="168.00" routeLength="209.26" timeLoss="28.84" maxSpeed="1.50"/>
    </personinfo>
    <personinfo id="person_WE_n.1" depart="31.50" type="DEFAULT_PEDTYPE" speedFactor="1.12" duration="180.00" waitingTime="0.00" timeLoss="35.81" traveltime="180.00">
        <walk depart="31.50" departPos="100.00" arrival="211.50" arrivalPos="93.20" duration="180.00" routeLength="224.16" timeLoss="35.81" maxSpeed="1.55"/>
    </personinfo>
    <personinfo id="person_EW_n.2" depart="18.00" type="DEFAULT_PEDTYPE" speedFactor="0.86" duration="195.50" waitingTime="0.00" timeLoss="19.38" traveltime="195.50">
        <walk depart="18.00" departPos="100.00" arrival="213.50" arrivalPos="93.20" duration="195.50" routeLength="210.56" timeLoss="19.38" maxSpeed="1.20"/>
    </personinfo>
    <personinfo id="person_WE_n.2" depart="31.50" type="DEFAULT_PEDTYPE" speedFactor="1.00" duration="189.50" waitingTime="0.00" timeLoss="27.77" traveltime="189.50">
        <walk depart="31.50" departPos="100.00" arrival="221.00" arrivalPos="93.20" duration="189.50" routeLength="224.16" timeLoss="27.77" maxSpeed="1.39"/>
    </personinfo>
    <personinfo id="person_WE_n.3" depart="37.00" type="DEFAULT_PEDTYPE" speedFactor="0.99" duration="186.50" waitingTime="0.00" timeLoss="22.98" traveltime="186.50">
        <walk depart="37.00" departPos="100.00" arrival="223.50" arrivalPos="93.20" duration="186.50" routeLength="224.16" timeLoss="22.98" maxSpeed="1.37"/>
    </personinfo>
    <personinfo id="person_NW_diag.5" depart="88.00" type="DEFAULT_PEDTYPE" speedFactor="1.11" duration="138.50" waitingTime="0.00" timeLoss="14.64" traveltime="138.50">
        <walk depart="88.00" departPos="100.00" arrival="226.50" arrivalPos="93.20" duration="138.50" routeLength="190.90" timeLoss="14.64" maxSpeed="1.54"/>
    </personinfo>
    <personinfo id="person_SN_w.1" depart="52.50" type="DEFAULT_PEDTYPE" speedFactor="1.00" duration="174.00" waitingTime="0.00" timeLoss="17.56" traveltime="174.00">
        <walk depart="52.50" departPos="100.00" arrival="226.50" arrivalPos="94.80" duration="174.00" routeLength="217.89" timeLoss="17.56" maxSpeed="1.39"/>
    </personinfo>
    <personinfo id="person_NE_diag.0" depart="11.50" type="DEFAULT_PEDTYPE" speedFactor="0.89" duration="218.50" waitingTime="0.00" timeLoss="35.92" traveltime="218.50">
        <walk depart="11.50" departPos="100.00" arrival="230.00" arrivalPos="93.20" duration="218.50" routeLength="225.71" timeLoss="35.92" maxSpeed="1.24"/>
    </personinfo>
    <tripinfo id="SN.7" depart="191.00" departLane="3_1_1" departPos="5.10" departSpeed="0.00" departDelay="0.09" arrival="231.00" arrivalLane="1_5_1" arrivalPos="189.60" arrivalSpeed="10.83" duration="40.00" routeLength="395.22" waitingTime="0.00" waitingCount="0" stopTime="0.00" timeLoss="3.57" rerouteNo="0" devices="tripinfo_SN.7 routing_SN.7" vType="DEFAULT_VEHTYPE" speedFactor="0.98" vaporized=""/>
    <personinfo id="person_EW_n.4" depart="85.50" type="DEFAULT_PEDTYPE" speedFactor="1.14" duration="147.50" waitingTime="0.00" timeLoss="14.76" traveltime="147.50">
        <walk depart="85.50" departPos="100.00" arrival="233.00" arrivalPos="93.20" duration="147.50" routeLength="210.56" timeLoss="14.76" maxSpeed="1.59"/>
    </personinfo>
    <personinfo id="person_WE_s.3" depart="62.00" type="DEFAULT_PEDTYPE" speedFactor="1.05" duration="172.50" waitingTime="0.00" timeLoss="28.43" traveltime="172.50">
        <walk depart="62.00" departPos="100.00" arrival="234.50" arrivalPos="93.20" duration="172.50" routeLength="209.26" timeLoss="28.43" maxSpeed="1.45"/>
    </personinfo>
    <tripinfo id="NS.10" depart="187.50" departLane="5_1_1" departPos="5.10" departSpeed="0.00" departDelay="0.00" arrival="234.50" arrivalLane="1_3_1" arrivalPos="189.60" arrivalSpeed="10.14" duration="47.00" routeLength="395.22" waitingTime="2.50" waitingCount="1" stopTime="0.00" timeLoss="9.76" rerouteNo="0" devices="tripinfo_NS.10 routing_NS.10" vType="DEFAULT_VEHTYPE" speedFactor="0.95" vaporized=""/>
    <tripinfo id="WE.4" depart="200.00" departLane="2_1_1" departPos="5.10" departSpeed="0.00" departDelay="0.00" arrival="236.00" arrivalLane="1_4_1" arrivalPos="186.40" arrivalSpeed="12.14" duration="36.00" routeLength="395.13" waitingTime="0.00" waitingCount="0" stopTime="0.00" timeLoss="3.63" rerouteNo="0" devices="tripinfo_WE.4 routing_WE.4" vType="DEFAULT_VEHTYPE" speedFactor="1.11" vaporized=""/>
    <personinfo id="person_NS_e.1" depart="28.50" type="DEFAULT_PEDTYPE" speedFactor="0.91" duration="209.50" waitingTime="0.00" timeLoss="36.64" traveltime="209.50">
        <walk depart="28.50" departPos="100.00" arrival="238.00" arrivalPos="94.80" duration="209.50" routeLength="219.53" timeLoss="36.64" maxSpeed="1.27"/>
    </personinfo>
    <personinfo id="person_NW_diag.7" depart="94.00" type="DEFAULT_PEDTYPE" speedFactor="1.04" duration="149.50" waitingTime="0.00" timeLoss="17.41" traveltime="149.50">
        <walk depart="94.00" departPos="100.00" arrival="243.50" arrivalPos="93.20" duration="149.50" routeLength="190.90" timeLoss="17.41" maxSpeed="1.45"/>
    </personinfo>