<?xml version="1.0" encoding="UTF-8"?>

<!-- generated on 2025-03-18 14:36:45 by Eclipse SUMO GUI Version 1.22.0
<sumoConfiguration xmlns:xsi="http://www.w3.org/2001/XMLSchema-instance" xsi:noNamespaceSchemaLocation="http://sumo.dlr.de/xsd/sumoConfiguration.xsd">

    <input>
        <net-file value="C:\Users\chris\PycharmProjects\UW_CET593_project2\environment/network_model/UW_intersection_pedestrian_X.net.xml"/>
        <route-files value="C:\Users\chris\PycharmProjects\UW_CET593_project2\environment/network_model/UW_IntersectionIncreaseDemand.rou.xml"/>
        <additional-files value="C:\Users\chris\PycharmProjects\UW_CET593_project2\environment/network_model/UW_intersection_Exclusive.add.xml"/>
    </input>

    <output>
        <queue-output value="C:\Users\chris\PycharmProjects\UW_CET593_project2\environment/simulation_data/UW_intersection/queues_multi_scale_symmetric_pene_20.xml"/>
        <tripinfo-output value="C:\Users\chris\PycharmProjects\UW_CET593_project2\environment/simulation_data/UW_intersection/tripinfo_multi_scale_symmetric_pene_20.xml"/>
    </output>

    <time>
        <begin value="0"/>
        <step-length value="0.5"/>
    </time>

    <processing>
        <waiting-time-memory value="1000"/>
    </processing>

    <report>
        <verbose value="true"/>
        <no-step-log value="true"/>
    </report>

    <traci_server>
        <remote-port value="58265"/>
    </traci_server>

    <gui_only>
        <start value="true"/>
    </gui_only>

</sumoConfiguration>
-->

<tripinfos xmlns:xsi="http://www.w3.org/2001/XMLSchema-instance" xsi:noNamespaceSchemaLocation="http://sumo.dlr.de/xsd/tripinfo_file.xsd">
    <tripinfo id="SE.0" depart="0.00" departLane="3_1_1" departPos="5.10" departSpeed="0.00" departDelay="0.00" arrival="36.00" arrivalLane="1_4_1" arrivalPos="186.40" arrivalSpeed="11.93" duration="36.00" routeLength="379.93" waitingTime="0.00" waitingCount="0" stopTime="0.00" timeLoss="4.59" rerouteNo="0" devices="tripinfo_SE.0 routing_SE.0" vType="DEFAULT_VEHTYPE" speedFactor="1.11" vaporized=""/>
    <tripinfo id="NS.0" depart="0.00" departLane="5_1_1" departPos="5.10" departSpeed="0.00" departDelay="0.00" arrival="38.00" arrivalLane="1_3_1" arrivalPos="189.60" arrivalSpeed="11.13" duration="38.00" routeLength="395.22" waitingTime="0.00" waitingCount="0" stopTime="0.00" timeLoss="2.07" rerouteNo="0" devices="tripinfo_NS.0 routing_NS.0" vType="DEFAULT_VEHTYPE" speedFactor="0.99" vaporized=""/>
    <tripinfo id="NW.0" depart="2.50" departLane="5_1_1" departPos="5.10" departSpeed="0.00" departDelay="2.50" arrival="38.50" arrivalLane="1_2_1" arrivalPos="186.40" arrivalSpeed="12.00" duration="36.00" routeLength="382.62" waitingTime="0.00" waitingCount="0" stopTime="0.00" timeLoss="4.58" rerouteNo="0" devices="tripinfo_NW.0 routing_NW.0" vType="DEFAULT_VEHTYPE" speedFactor="1.12" vaporized=""/>
    <tripinfo id="SN.0" depart="0.00" departLane="3_1_2" departPos="5.10" departSpeed="0.00" departDelay="0.00" arrival="39.50" arrivalLane="1_5_1" arrivalPos="189.60" arrivalSpeed="10.64" duration="39.50" routeLength="395.22" waitingTime="0.00" waitingCount="0" stopTime="0.00" timeLoss="3.63" rerouteNo="0" devices="tripinfo_SN.0 routing_SN.0" vType="DEFAULT_VEHTYPE" speedFactor="1.00" vaporized=""/>
    <tripinfo id="EN.0" depart="0.00" departLane="4_1_1" departPos="5.10" departSpeed="0.00" departDelay="0.00" arrival="46.50" arrivalLane="1_5_1" arrivalPos="189.60" arrivalSpeed="12.74" duration="46.50" routeLength="382.62" waitingTime="8.50" waitingCount="1" stopTime="0.00" timeLoss="17.10" rerouteNo="0" devices="tripinfo_EN.0 routing_EN.0" vType="DEFAULT_VEHTYPE" speedFactor="1.19" vaporized=""/>
    <tripinfo id="WE.0" depart="0.00" departLane="2_1_1" departPos="5.10" departSpeed="0.00" departDelay="0.00" arrival="48.50" arrivalLane="1_4_1" arrivalPos="186.40" arrivalSpeed="11.38" duration="48.50" routeLength="395.13" waitingTime="4.50" waitingCount="2" stopTime="0.00" timeLoss="13.60" rerouteNo="0" devices="tripinfo_WE.0 routing_WE.0" vType="DEFAULT_VEHTYPE" speedFactor="1.02" vaporized=""/>
    <tripinfo id="WN.0" depart="2.50" departLane="2_1_1" departPos="5.10" departSpeed="0.00" departDelay="2.50" arrival="51.00" arrivalLane="1_5_2" arrivalPos="189.60" arrivalSpeed="12.09" duration="48.50" routeLength="392.90" waitingTime="3.00" waitingCount="1" stopTime="0.00" timeLoss="16.48" rerouteNo="0" devices="tripinfo_WN.0 routing_WN.0" vType="DEFAULT_VEHTYPE" speedFactor="1.11" vaporized=""/>
    <tripinfo id="EW.0" depart="3.00" departLane="4_1_2" departPos="5.10" departSpeed="0.00" departDelay="3.00" arrival="52.00" arrivalLane="1_2_1" arrivalPos="186.40" arrivalSpeed="12.91" duration="49.00" routeLength="394.90" waitingTime="3.50" waitingCount="2" stopTime="0.00" timeLoss="19.59" rerouteNo="0" devices="tripinfo_EW.0 routing_EW.0" vType="DEFAULT_VEHTYPE" speedFactor="1.20" vaporized=""/>
    <tripinfo id="ES.0" depart="0.00" departLane="4_1_2" departPos="5.10" departSpeed="0.00" departDelay="0.00" arrival="54.50" arrivalLane="1_3_2" arrivalPos="189.60" arrivalSpeed="10.37" duration="54.50" routeLength="392.89" waitingTime="6.50" waitingCount="2" stopTime="0.00" timeLoss="16.84" rerouteNo="0" devices="tripinfo_ES.0 routing_ES.0" vType="DEFAULT_VEHTYPE" speedFactor="0.95" vaporized=""/>
    <tripinfo id="WS.0" depart="5.00" departLane="2_1_1" departPos="5.10" departSpeed="0.00" departDelay="5.00" arrival="54.50" arrivalLane="1_3_1" arrivalPos="189.60" arrivalSpeed="9.91" duration="49.50" routeLength="385.10" waitingTime="1.00" waitingCount="1" stopTime="0.00" timeLoss="12.12" rerouteNo="0" devices="tripinfo_WS.0 routing_WS.0" vType="DEFAULT_VEHTYPE" speedFactor="0.94" vaporized=""/>
    <tripinfo id="NS.1" depart="16.00" departLane="5_1_2" departPos="5.10" departSpeed="0.00" departDelay="0.38" arrival="62.50" arrivalLane="1_3_1" arrivalPos="189.60" arrivalSpeed="11.30" duration="46.50" routeLength="395.22" waitingTime="4.00" waitingCount="1" stopTime="0.00" timeLoss="11.49" rerouteNo="0" devices="tripinfo_NS.1 routing_NS.1" vType="DEFAULT_VEHTYPE" speedFactor="1.01" vaporized=""/>
    <tripinfo id="SW.0" depart="0.00" departLane="3_1_3" departPos="5.10" departSpeed="0.00" departDelay="0.00" arrival="63.00" arrivalLane="1_2_1" arrivalPos="186.40" arrivalSpeed="12.47" duration="63.00" routeLength="392.89" waitingTime="21.50" waitingCount="1" stopTime="0.00" timeLoss="31.95" rerouteNo="0" devices="tripinfo_SW.0 routing_SW.0" vType="DEFAULT_VEHTYPE" speedFactor="1.14" vaporized=""/>
    <tripinfo id="NE.0" depart="0.00" departLane="5_1_3" departPos="5.10" departSpeed="0.00" departDelay="0.00" arrival="67.50" arrivalLane="1_4_1" arrivalPos="186.40" arrivalSpeed="9.54" duration="67.50" routeLength="392.89" waitingTime="18.50" waitingCount="2" stopTime="0.00" timeLoss="28.21" rerouteNo="0" devices="tripinfo_NE.0 routing_NE.0" vType="DEFAULT_VEHTYPE" speedFactor="0.90" vaporized=""/>
    <tripinfo id="SN.1" depart="23.00" departLane="3_1_1" departPos="5.10" departSpeed="0.00" departDelay="0.27" arrival="72.50" arrivalLane="1_5_1" arrivalPos="189.60" arrivalSpeed="9.85" duration="49.50" routeLength="395.22" waitingTime="5.00" waitingCount="1" stopTime="0.00" timeLoss="10.20" rerouteNo="0" devices="tripinfo_SN.1 routing_SN.1" vType="DEFAULT_VEHTYPE" speedFactor="0.91" vaporized=""/>
    <tripinfo id="NS.2" depart="31.50" departLane="5_1_2" departPos="5.10" departSpeed="0.00" departDelay="0.25" arrival="73.00" arrivalLane="1_3_1" arrivalPos="189.60" arrivalSpeed="10.17" duration="41.50" routeLength="395.22" waitingTime="0.00" waitingCount="0" stopTime="0.00" timeLoss="3.45" rerouteNo="0" devices="tripinfo_NS.2 routing_NS.2" vType="DEFAULT_VEHTYPE" speedFactor="0.93" vaporized=""/>
    <tripinfo id="SE.1" depart="45.50" departLane="3_1_1" departPos="5.10" departSpeed="0.00" departDelay="0.05" arrival="83.50" arrivalLane="1_4_1" arrivalPos="186.40" arrivalSpeed="11.55" duration="38.00" routeLength="379.93" waitingTime="0.00" waitingCount="0" stopTime="0.00" timeLoss="5.63" rerouteNo="0" devices="tripinfo_SE.1 routing_SE.1" vType="DEFAULT_VEHTYPE" speedFactor="1.08" vaporized=""/>
    <tripinfo id="SN.2" depart="45.50" departLane="3_1_2" departPos="5.10" departSpeed="0.00" departDelay="0.05" arrival="87.50" arrivalLane="1_5_1" arrivalPos="189.60" arrivalSpeed="9.99" duration="42.00" routeLength="395.22" waitingTime="0.00" waitingCount="0" stopTime="0.00" timeLoss="3.64" rerouteNo="0" devices="tripinfo_SN.2 routing_SN.2" vType="DEFAULT_VEHTYPE" speedFactor="0.92" vaporized=""/>
    <tripinfo id="NW.1" depart="42.00" departLane="5_1_1" departPos="5.10" departSpeed="0.00" departDelay="0.33" arrival="89.00" arrivalLane="1_2_1" arrivalPos="186.40" arrivalSpeed="9.09" duration="47.00" routeLength="382.62" waitingTime="0.00" waitingCount="0" stopTime="0.00" timeLoss="3.81" rerouteNo="0" devices="tripinfo_NW.1 routing_NW.1" vType="DEFAULT_VEHTYPE" speedFactor="0.81" vaporized=""/>
    <tripinfo id="NS.3" depart="47.00" departLane="5_1_2" departPos="5.10" departSpeed="0.00" departDelay="0.13" arrival="92.50" arrivalLane="1_3_1" arrivalPos="189.60" arrivalSpeed="8.97" duration="45.50" routeLength="395.22" waitingTime="0.00" waitingCount="0" stopTime="0.00" timeLoss="3.50" rerouteNo="0" devices="tripinfo_NS.3 routing_NS.3" vType="DEFAULT_VEHTYPE" speedFactor="0.84" vaporized=""/>
    <tripinfo id="WE.1" depart="42.00" departLane="2_1_1" departPos="5.10" departSpeed="0.00" departDelay="0.33" arrival="93.50" arrivalLane="1_4_1" arrivalPos="186.40" arrivalSpeed="12.10" duration="51.50" routeLength="395.13" waitingTime="11.00" waitingCount="1" stopTime="0.00" timeLoss="19.03" rerouteNo="0" devices="tripinfo_WE.1 routing_WE.1" vType="DEFAULT_VEHTYPE" speedFactor="1.10" vaporized=""/>
    <tripinfo id="WS.1" depart="56.00" departLane="2_1_1" departPos="5.10" departSpeed="0.00" departDelay="0.44" arrival="105.50" arrivalLane="1_3_1" arrivalPos="189.60" arrivalSpeed="9.09" duration="49.50" routeLength="385.10" waitingTime="2.00" waitingCount="1" stopTime="0.00" timeLoss="8.21" rerouteNo="0" devices="tripinfo_WS.1 routing_WS.1" vType="DEFAULT_VEHTYPE" speedFactor="0.85" vaporized=""/>
    <tripinfo id="NS.4" depart="62.50" departLane="5_1_2" departPos="5.10" departSpeed="0.00" departDelay="0.00" arrival="107.50" arrivalLane="1_3_1" arrivalPos="189.60" arrivalSpeed="10.76" duration="45.00" routeLength="395.22" waitingTime="1.50" waitingCount="1" stopTime="0.00" timeLoss="7.79" rerouteNo="0" devices="tripinfo_NS.4 routing_NS.4" vType="DEFAULT_VEHTYPE" speedFactor="0.96" vaporized=""/>
    <tripinfo id="SN.3" depart="68.50" departLane="3_1_1" departPos="5.10" departSpeed="0.00" departDelay="0.32" arrival="117.50" arrivalLane="1_5_1" arrivalPos="189.60" arrivalSpeed="9.52" duration="49.00" routeLength="395.22" waitingTime="2.50" waitingCount="1" stopTime="0.00" timeLoss="7.31" rerouteNo="0" devices="tripinfo_SN.3 routing_SN.3" vType="DEFAULT_VEHTYPE" speedFactor="0.85" vaporized=""/>
    <tripinfo id="NS.5" depart="78.50" departLane="5_1_2" departPos="5.10" departSpeed="0.00" departDelay="0.38" arrival="117.50" arrivalLane="1_3_1" arrivalPos="189.60" arrivalSpeed="12.76" duration="39.00" routeLength="395.22" waitingTime="0.00" waitingCount="0" stopTime="0.00" timeLoss="7.84" rerouteNo="0" devices="tripinfo_NS.5 routing_NS.5" vType="DEFAULT_VEHTYPE" speedFactor="1.14" vaporized=""/>
    <tripinfo id="NW.2" depart="83.50" departLane="5_1_1" departPos="5.10" departSpeed="0.00" departDelay="0.17" arrival="120.50" arrivalLane="1_2_1" arrivalPos="186.40" arrivalSpeed="12.19" duration="37.00" routeLength="382.62" waitingTime="0.00" waitingCount="0" stopTime="0.00" timeLoss="5.35" rerouteNo="0" devices="tripinfo_NW.2 routing_NW.2" vType="DEFAULT_VEHTYPE" speedFactor="1.10" vaporized=""/>
    <tripinfo id="NS.6" depart="94.00" departLane="5_1_2" departPos="5.10" departSpeed="0.00" departDelay="0.25" arrival="128.00" arrivalLane="1_3_1" arrivalPos="189.60" arrivalSpeed="12.83" duration="34.00" routeLength="395.22" waitingTime="0.00" waitingCount="0" stopTime="0.00" timeLoss="3.95" rerouteNo="0" devices="tripinfo_NS.6 routing_NS.6" vType="DEFAULT_VEHTYPE" speedFactor="1.19" vaporized=""/>
    <personinfo id="person_SE_diag.0" depart="4.50" type="DEFAULT_PEDTYPE" speedFactor="1.18" duration="127.00" waitingTime="0.00" timeLoss="12.45" traveltime="127.00">
        <walk depart="4.50" departPos="100.00" arrival="131.50" arrivalPos="93.20" duration="127.00" routeLength="187.66" timeLoss="12.45" maxSpeed="1.64"/>
    </personinfo>
    <tripinfo id="SN.4" depart="91.00" departLane="3_1_2" departPos="5.10" departSpeed="0.00" departDelay="0.09" arrival="134.00" arrivalLane="1_5_1" arrivalPos="189.60" arrivalSpeed="9.64" duration="43.00" routeLength="395.22" waitingTime="0.00" waitingCount="0" stopTime="0.00" timeLoss="3.21" rerouteNo="0" devices="tripinfo_SN.4 routing_SN.4" vType="DEFAULT_VEHTYPE" speedFactor="0.90" vaporized=""/>
    <tripinfo id="SE.2" depart="91.00" departLane="3_1_1" departPos="5.10" departSpeed="0.00" departDelay="0.09" arrival="135.50" arrivalLane="1_4_1" arrivalPos="186.40" arrivalSpeed="10.90" duration="44.50" routeLength="379.93" waitingTime="2.50" waitingCount="1" stopTime="0.00" timeLoss="9.58" rerouteNo="0" devices="tripinfo_SE.2 routing_SE.2" vType="DEFAULT_VEHTYPE" speedFactor="0.99" vaporized=""/>
    <tripinfo id="SN.5" depart="114.00" departLane="3_1_1" departPos="5.10" departSpeed="0.00" departDelay="0.37" arrival="150.00" arrivalLane="1_5_1" arrivalPos="189.60" arrivalSpeed="12.27" duration="36.00" routeLength="395.22" waitingTime="0.00" waitingCount="0" stopTime="0.00" timeLoss="3.88" rerouteNo="0" devices="tripinfo_SN.5 routing_SN.5" vType="DEFAULT_VEHTYPE" speedFactor="1.11" vaporized=""/>
    <tripinfo id="NS.7" depart="109.50" departLane="5_1_2" departPos="5.10" departSpeed="0.00" departDelay="0.13" arrival="151.50" arrivalLane="1_3_1" arrivalPos="189.60" arrivalSpeed="9.83" duration="42.00" routeLength="395.22" waitingTime="0.00" waitingCount="0" stopTime="0.00" timeLoss="3.68" rerouteNo="0" devices="tripinfo_NS.7 routing_NS.7" vType="DEFAULT_VEHTYPE" speedFactor="0.93" vaporized=""/>
    <personinfo id="person_SE_diag.1" depart="17.00" type="DEFAULT_PEDTYPE" speedFactor="1.08" duration="138.50" waitingTime="0.00" timeLoss="13.04" traveltime="138.50">
        <walk depart="17.00" departPos="100.00" arrival="155.50" arrivalPos="93.20" duration="138.50" routeLength="187.66" timeLoss="13.04" maxSpeed="1.50"/>
    </personinfo>
    <tripinfo id="NS.8" depart="125.00" departLane="5_1_2" departPos="5.10" departSpeed="0.00" departDelay="0.00" arrival="160.00" arrivalLane="1_3_1" arrivalPos="189.60" arrivalSpeed="12.74" duration="35.00" routeLength="395.22" waitingTime="0.00" waitingCount="0" stopTime="0.00" timeLoss="3.68" rerouteNo="0" devices="tripinfo_NS.8 routing_NS.8" vType="DEFAULT_VEHTYPE" speedFactor="1.14" vaporized=""/>
    <personinfo id="person_NW_diag.0" depart="15.50" type="DEFAULT_PEDTYPE" speedFactor="1.05" duration="145.50" waitingTime="0.00" timeLoss="14.76" traveltime="145.50">
        <walk depart="15.50" departPos="100.00" arrival="161.00" arrivalPos="93.20" duration="145.50" routeLength="190.90" timeLoss="14.76" maxSpeed="1.46"/>
    </personinfo>
    <tripinfo id="NW.3" depart="125.50" departLane="5_1_1" departPos="5.10" departSpeed="0.00" departDelay="0.50" arrival="165.50" arrivalLane="1_2_1" arrivalPos="186.40" arrivalSpeed="10.37" duration="40.00" routeLength="382.62" waitingTime="0.00" waitingCount="0" stopTime="0.00" timeLoss="4.53" rerouteNo="0" devices="tripinfo_NW.3 routing_NW.3" vType="DEFAULT_VEHTYPE" speedFactor="0.98" vaporized=""/>
    <tripinfo id="EW.1" depart="125.00" departLane="4_1_2" departPos="5.10" departSpeed="0.00" departDelay="0.00" arrival="170.50" arrivalLane="1_2_1" arrivalPos="186.40" arrivalSpeed="12.17" duration="45.50" routeLength="394.90" waitingTime="5.50" waitingCount="1" stopTime="0.00" timeLoss="13.57" rerouteNo="0" devices="tripinfo_EW.1 routing_EW.1" vType="DEFAULT_VEHTYPE" speedFactor="1.12" vaporized=""/>
    <tripinfo id="WE.2" depart="83.50" departLane="2_1_1" departPos="5.10" departSpeed="0.00" departDelay="0.17" arrival="171.00" arrivalLane="1_4_1" arrivalPos="186.40" arrivalSpeed="11.37" duration="87.50" routeLength="395.13" waitingTime="46.00" waitingCount="1" stopTime="0.00" timeLoss="53.87" rerouteNo="0" devices="tripinfo_WE.2 routing_WE.2" vType="DEFAULT_VEHTYPE" speedFactor="1.06" vaporized=""/>
    <personinfo id="person_WE_s.0" depart="1.50" type="DEFAULT_PEDTYPE" speedFactor="0.98" duration="172.50" waitingTime="0.00" timeLoss="18.00" traveltime="172.50">
        <walk depart="1.50" departPos="100.00" arrival="174.00" arrivalPos="93.20" duration="172.50" routeLength="209.26" timeLoss="18.00" maxSpeed="1.35"/>
    </personinfo>
    <tripinfo id="SN.6" depart="136.50" departLane="3_1_2" departPos="5.10" departSpeed="0.00" departDelay="0.14" arrival="180.00" arrivalLane="1_5_1" arrivalPos="189.60" arrivalSpeed="11.48" duration="43.50" routeLength="395.22" waitingTime="2.50" waitingCount="1" stopTime="0.00" timeLoss="9.93" rerouteNo="0" devices="tripinfo_SN.6 routing_SN.6" vType="DEFAULT_VEHTYPE" speedFactor="1.07" vaporized=""/>
    <tripinfo id="WS.2" depart="111.50" departLane="2_1_1" departPos="5.10" departSpeed="0.00" departDelay="0.39" arrival="182.50" arrivalLane="1_3_1" arrivalPos="189.60" arrivalSpeed="11.48" duration="71.00" routeLength="385.10" waitingTime="24.50" waitingCount="2" stopTime="0.00" timeLoss="38.28" rerouteNo="0" devices="tripinfo_WS.2 routing_WS.2" vType="DEFAULT_VEHTYPE" speedFactor="1.07" vaporized=""/>
    <tripinfo id="NE.1" depart="125.00" departLane="5_1_3" departPos="5.10" departSpeed="0.00" departDelay="0.00" arrival="182.50" arrivalLane="1_4_2" arrivalPos="186.40" arrivalSpeed="13.26" duration="57.50" routeLength="392.89" waitingTime="16.50" waitingCount="2" stopTime="0.00" timeLoss="27.60" rerouteNo="0" devices="tripinfo_NE.1 routing_NE.1" vType="DEFAULT_VEHTYPE" speedFactor="1.19" vaporized=""/>
    <tripinfo id="EN.1" depart="125.00" departLane="4_1_1" departPos="5.10" departSpeed="0.00" departDelay="0.00" arrival="183.00" arrivalLane="1_5_1" arrivalPos="189.60" arrivalSpeed="11.14" duration="58.00" routeLength="382.62" waitingTime="13.00" waitingCount="3" stopTime="0.00" timeLoss="22.78" rerouteNo="0" devices="tripinfo_EN.1 routing_EN.1" vType="DEFAULT_VEHTYPE" speedFactor="1.00" vaporized=""/>
    <tripinfo id="NS.9" depart="141.00" departLane="5_1_2" departPos="5.10" departSpeed="0.00" departDelay="0.38" arrival="186.00" arrivalLane="1_3_1" arrivalPos="189.60" arrivalSpeed="10.94" duration="45.00" routeLength="395.22" waitingTime="2.50" waitingCount="1" stopTime="0.00" timeLoss="8.60" rerouteNo="0" devices="tripinfo_NS.9 routing_NS.9" vType="DEFAULT_VEHTYPE" speedFactor="0.98" vaporized=""/>
    <tripinfo id="NS.10" depart="156.50" departLane="5_1_2" departPos="5.10" departSpeed="0.00" departDelay="0.25" arrival="194.50" arrivalLane="1_3_1" arrivalPos="189.60" arrivalSpeed="11.06" duration="38.00" routeLength="395.22" waitingTime="0.00" waitingCount="0" stopTime="0.00" timeLoss="3.70" rerouteNo="0" devices="tripinfo_NS.10 routing_NS.10" vType="DEFAULT_VEHTYPE" speedFactor="1.03" vaporized=""/>
    <personinfo id="person_NS_w.0" depart="25.50" type="DEFAULT_PEDTYPE" speedFactor="0.97" duration="172.50" waitingTime="0.00" timeLoss="18.72" traveltime="172.50">
        <walk depart="25.50" departPos="100.00" arrival="198.00" arrivalPos="94.80" duration="172.50" routeLength="207.49" timeLoss="18.72" maxSpeed="1.35"/>
    </personinfo>
    <tripinfo id="SN.7" depart="159.50" departLane="3_1_2" departPos="5.10" departSpeed="0.00" departDelay="0.41" arrival="202.50" arrivalLane="1_5_1" arrivalPos="189.60" arrivalSpeed="11.05" duration="43.00" routeLength="395.22" waitingTime="0.00" waitingCount="0" stopTime="0.00" timeLoss="8.13" rerouteNo="0" devices="tripinfo_SN.7 routing_SN.7" vType="DEFAULT_VEHTYPE" speedFactor="1.02" vaporized=""/>
    <tripinfo id="SE.3" depart="136.50" departLane="3_1_1" departPos="5.10" departSpeed="0.00" departDelay="0.14" arrival="208.00" arrivalLane="1_4_1" arrivalPos="186.40" arrivalSpeed="13.59" duration="71.50" routeLength="379.93" waitingTime="33.50" waitingCount="2" stopTime="0.00" timeLoss="43.76" rerouteNo="0" devices="tripinfo_SE.3 routing_SE.3" vType="DEFAULT_VEHTYPE" speedFactor="1.26" vaporized=""/>
    <tripinfo id="NW.4" depart="167.00" departLane="5_1_1" departPos="5.10" departSpeed="0.00" departDelay="0.33" arrival="208.00" arrivalLane="1_2_1" arrivalPos="186.40" arrivalSpeed="11.87" duration="41.00" routeLength="382.62" waitingTime="2.00" waitingCount="1" stopTime="0.00" timeLoss="8.88" rerouteNo="0" devices="tripinfo_NW.4 routing_NW.4" vType="DEFAULT_VEHTYPE" speedFactor="1.09" vaporized=""/>
    <tripinfo id="NS.11" depart="172.00" departLane="5_1_2" departPos="5.10" departSpeed="0.00" departDelay="0.13" arrival="212.50" arrivalLane="1_3_1" arrivalPos="189.60" arrivalSpeed="10.74" duration="40.50" routeLength="395.22" waitingTime="0.00" waitingCount="0" stopTime="0.00" timeLoss="3.39" rerouteNo="0" devices="tripinfo_NS.11 routing_NS.11" vType="DEFAULT_VEHTYPE" speedFactor="0.96" vaporized=""/>
    <personinfo id="person_SE_diag.2" depart="41.00" type="DEFAULT_PEDTYPE" speedFactor="0.87" duration="172.50" waitingTime="0.00" timeLoss="17.87" traveltime="172.50">
        <walk depart="41.00" departPos="100.00" arrival="213.50" arrivalPos="93.20" duration="172.50" routeLength="187.66" timeLoss="17.87" maxSpeed="1.21"/>
    </personinfo>
    <personinfo id="person_SN_e.0" depart="26.50" type="DEFAULT_PEDTYPE" speedFactor="0.88" duration="191.50" waitingTime="0.00" timeLoss="19.99" traveltime="191.50">
        <walk depart="26.50" departPos="100.00" arrival="218.00" arrivalPos="94.80" duration="191.50" routeLength="209.13" timeLoss="19.99" maxSpeed="1.22"/>
    </personinfo>
    <tripinfo id="SN.8" depart="182.00" departLane="3_1_2" departPos="5.10" departSpeed="0.00" departDelay="0.18" arrival="220.50" arrivalLane="1_5_1" arrivalPos="189.60" arrivalSpeed="11.36" duration="38.50" routeLength="395.22" waitingTime="0.00" waitingCount="0" stopTime="0.00" timeLoss="3.48" rerouteNo="0" devices="tripinfo_SN.8 routing_SN.8" vType="DEFAULT_VEHTYPE" speedFactor="1.01" vaporized=""/>
    <personinfo id="person_SN_e.1" depart="67.50" type="DEFAULT_PEDTYPE" speedFactor="1.07" duration="155.50" waitingTime="0.00" timeLoss="14.78" traveltime="155.50">
        <walk depart="67.50" departPos="100.00" arrival="223.00" arrivalPos="94.80" duration="155.50" routeLength="209.13" timeLoss="14.78" maxSpeed="1.49"/>
    </personinfo>
    <personinfo id="person_WE_s.2" depart="43.00" type="DEFAULT_PEDTYPE" speedFactor="1.20" duration="182.00" waitingTime="0.00" timeLoss="56.49" traveltime="182.00">
        <walk depart="43.00" departPos="100.00" arrival="225.00" arrivalPos="93.20" duration="182.00" routeLength="209.26" timeLoss="56.49" maxSpeed="1.67"/>
    </personinfo>
    <personinfo id="person_SE_diag.3" depart="85.50" type="DEFAULT_PEDTYPE" speedFactor="1.08" duration="140.50" waitingTime="0.00" timeLoss="15.00" traveltime="140.50">
        <walk depart="85.50" departPos="100.00" arrival="226.00" arrivalPos="93.20" duration="140.50" routeLength="187.66" timeLoss="15.00" maxSpeed="1.50"/>
    </personinfo>
    <tripinfo id="NS.12" depart="187.50" departLane="5_1_2" departPos="5.10" departSpeed="0.00" departDelay="0.00" arrival="227.00" arrivalLane="1_3_1" arrivalPos="189.60" arrivalSpeed="10.98" duration="39.50" routeLength="395.22" waitingTime="0.00" waitingCount="0" stopTime="0.00" timeLoss="3.69" rerouteNo="0" devices="tripinfo_NS.12 routing_NS.12" vType="DEFAULT_VEHTYPE" speedFactor="0.99" vaporized=""/>
    <personinfo id="person_NW_diag.1" depart="40.50" type="DEFAULT_PEDTYPE" speedFactor="0.81" duration="188.00" waitingTime="0.00" timeLoss="17.68" traveltime="188.00">
        <walk depart="40.50" departPos="100.00" arrival="228.50" arrivalPos="93.20" duration="188.00" routeLength="190.90" timeLoss="17.68" maxSpeed="1.12"/>
    </personinfo>
    <tripinfo id="SE.4" depart="182.00" departLane="3_1_1" departPos="5.10" departSpeed="0.00" departDelay="0.18" arrival="230.00" arrivalLane="1_4_1" arrivalPos="186.40" arrivalSpeed="9.25" duration="48.00" routeLength="379.93" waitingTime="2.00" waitingCount="1" stopTime="0.00" timeLoss="7.38" rerouteNo="0" devices="tripinfo_SE.4 routing_SE.4" vType="DEFAULT_VEHTYPE" speedFactor="0.86" vaporized=""/>
    <personinfo id="person_EW_n.3" depart="60.00" type="DEFAULT_PEDTYPE" speedFactor="1.14" duration="172.00" waitingTime="0.00" timeLoss="39.26" traveltime="172.00">
        <walk depart="60.00" departPos="100.00" arrival="232.00" arrivalPos="93.20" duration="172.00" routeLength="210.56" timeLoss="39.26" maxSpeed="1.59"/>
    </personinfo>
    <personinfo id="person_WE_s.1" depart="36.50" type="DEFAULT_PEDTYPE" speedFactor="1.08" duration="197.50" waitingTime="0.00" timeLoss="58.34" traveltime="197.50">
        <walk depart="36.50" departPos="100.00" arrival="234.00" arrivalPos="93.20" duration="197.50" routeLength="209.26" timeLoss="58.34" maxSpeed="1.50"/>
    </personinfo>
    <personinfo id="person_EW_n.0" depart="2.50" type="DEFAULT_PEDTYPE" speedFactor="1.09" duration="233.00" waitingTime="0.00" timeLoss="94.04" traveltime="233.00">
        <walk depart="2.50" departPos="100.00" arrival="235.50" arrivalPos="93.20" duration="233.00" routeLength="210.56" timeLoss="94.04" maxSpeed="1.52"/>
    </personinfo>
    <personinfo id="person_EW_n.5" depart="68.00" type="DEFAULT_PEDTYPE" speedFactor="1.14" duration="168.00" waitingTime="0.00" timeLoss="35.47" traveltime="168.00">
        <walk depart="68.00" departPos="100.00" arrival="236.00" arrivalPos="93.20" duration="168.00" routeLength="210.56" timeLoss="35.47" maxSpeed="1.59"/>
    </personinfo>
    <personinfo id="person_NS_e.0" depart="36.00" type="DEFAULT_PEDTYPE" speedFactor="0.87" duration="200.50" waitingTime="0.00" timeLoss="19.84" traveltime="200.50">
        <walk depart="36.00" departPos="100.00" arrival="236.50" arrivalPos="94.80" duration="200.50" routeLength="219.53" timeLoss="19.84" maxSpeed="1.22"/>
    </personinfo>
    <personinfo id="person_NS_e.1" depart="45.50" type="DEFAULT_PEDTYPE" speedFactor="0.93" duration="191.50" waitingTime="0.00" timeLoss="22.43" traveltime="191.50">
        <walk depart="45.50" departPos="100.00" arrival="237.00" arrivalPos="94.80" duration="191.50" routeLength="219.53" timeLoss="22.43" maxSpeed="1.30"/>
    </personinfo>
    <personinfo id="person_EW_n.4" depart="65.00" type="DEFAULT_PEDTYPE" speedFactor="1.10" duration="172.50" waitingTime="0.00" timeLoss="34.33" traveltime="172.50">
        <walk depart="65.00" departPos="100.00" arrival="237.50" arrivalPos="93.20" duration="172.50" routeLength="210.56" timeLoss="34.33" maxSpeed="1.52"/>
    </personinfo>
    <personinfo id="person_WE_s.3" depart="52.00" type="DEFAULT_PEDTYPE" speedFactor="1.05" duration="185.50" waitingTime="0.00" timeLoss="41.43" traveltime="185.50">
        <walk depart="52.00" departPos="100.00" arrival="237.50" arrivalPos="93.20" duration="185.50" routeLength="209.26" timeLoss="41.43" maxSpeed="1.45"/>
    </personinfo>
    <tripinfo id="NS.13" depart="203.50" departLane="5_1_2" departPos="5.10" departSpeed="0.00" departDelay="0.38" arrival="239.00" arrivalLane="1_3_1" arrivalPos="189.60" arrivalSpeed="12.03" duration="35.50" routeLength="395.22" waitingTime="0.00" waitingCount="0" stopTime="0.00" timeLoss="3.54" rerouteNo="0" devices="tripinfo_NS.13 routing_NS.13" vType="DEFAULT_VEHTYPE" speedFactor="1.10" vaporized=""/>
    <personinfo id="person_WE_n.1" depart="58.00" type="DEFAULT_PEDTYPE" speedFactor="1.03" duration="182.00" waitingTime="0.00" timeLoss="25.87" traveltime="182.00">
        <walk depart="58.00" departPos="100.00" arrival="240.00" arrivalPos="93.20" duration="182.00" routeLength="224.16" timeLoss="25.87" maxSpeed="1.44"/>
    </personinfo>
    <personinfo id="person_NE_diag.0" depart="20.50" type="DEFAULT_PEDTYPE" speedFactor="1.02" duration="220.00" waitingTime="0.00" timeLoss="65.16" traveltime="220.00">
        <walk depart="20.50" departPos="100.00" arrival="240.50" arrivalPos="93.20" duration="220.00" routeLength="220.38" timeLoss="65.16" maxSpeed="1.42"/>
    </personinfo>
    <personinfo id="person_WE_n.0" depart="14.50" type="DEFAULT_PEDTYPE" speedFactor="1.08" duration="226.00" waitingTime="0.00" timeLoss="76.91" traveltime="226.00">
        <walk depart="14.50" departPos="100.00" arrival="240.50" arrivalPos="93.20" duration="226.00" routeLength="224.16" timeLoss="76.91" maxSpeed="1.50"/>
    </personinfo>
    <personinfo id="person_NS_e.2" depart="70.50" type="DEFAULT_PEDTYPE" speedFactor="1.07" duration="170.50" waitingTime="0.00" timeLoss="22.42" traveltime="170.50">
        <walk depart="70.50" departPos="100.00" arrival="241.00" arrivalPos="94.80" duration="170.50" routeLength="219.53" timeLoss="22.42" maxSpeed="1.48"/>
    </personinfo>
    <personinfo id="person_NS_e.3" depart="76.50" type="DEFAULT_PEDTYPE" speedFactor="1.09" duration="165.50" waitingTime="0.00" timeLoss="20.24" traveltime="165.50">
        <walk depart="76.50" departPos="100.00" arrival="242.00" arrivalPos="94.80" duration="165.50" routeLength="219.53" timeLoss="20.24" maxSpeed="1.51"/>
    </personinfo>
    <tripinfo id="SN.9" depart="205.00" departLane="3_1_1" departPos="5.10" departSpeed="0.00" departDelay="0.46" arrival="245.00" arrivalLane="1_5_1" arrivalPos="189.60" arrivalSpeed="10.70" duration="40.00" routeLength="395.22" waitingTime="0.00" waitingCount="0" stopTime="0.00" timeLoss="3.71" rerouteNo="0" devices="tripinfo_SN.9 routing_SN.9" vType="DEFAULT_VEHTYPE" speedFactor="0.98" vaporized=""/>