<?xml version="1.0" encoding="UTF-8"?>

<!-- generated on 2025-03-17 19:04:20 by Eclipse SUMO GUI Version 1.22.0
<sumoConfiguration xmlns:xsi="http://www.w3.org/2001/XMLSchema-instance" xsi:noNamespaceSchemaLocation="http://sumo.dlr.de/xsd/sumoConfiguration.xsd">

    <input>
        <net-file value="C:\Users\chris\PycharmProjects\UW_CET593_project2\environment/network_model/UW_intersection_pedestrian_X.net.xml"/>
        <route-files value="C:\Users\chris\PycharmProjects\UW_CET593_project2\environment/network_model/UW_IntersectionDecreaseDemand.rou.xml"/>
        <additional-files value="C:\Users\chris\PycharmProjects\UW_CET593_project2\environment/network_model/UW_intersection_Concurrent.add.xml"/>
    </input>

    <output>
        <queue-output value="C:\Users\chris\PycharmProjects\UW_CET593_project2\environment/simulation_data/UW_intersection/queues_multi_scale_symmetric_pene_50.xml"/>
        <tripinfo-output value="C:\Users\chris\PycharmProjects\UW_CET593_project2\environment/simulation_data/UW_intersection/tripinfo_multi_scale_symmetric_pene_50.xml"/>
    </output>

    <time>
        <begin value="0"/>
        <step-length value="0.5"/>
    </time>

    <processing>
        <waiting-time-memory value="1000"/>
    </processing>

    <report>
        <verbose value="true"/>
        <no-step-log value="true"/>
    </report>

    <traci_server>
        <remote-port value="50899"/>
    </traci_server>

    <gui_only>
        <start value="true"/>
    </gui_only>

</sumoConfiguration>
-->

<tripinfos xmlns:xsi="http://www.w3.org/2001/XMLSchema-instance" xsi:noNamespaceSchemaLocation="http://sumo.dlr.de/xsd/tripinfo_file.xsd">
    <tripinfo id="NS.0" depart="0.00" departLane="5_1_1" departPos="5.10" departSpeed="0.00" departDelay="0.00" arrival="36.00" arrivalLane="1_3_1" arrivalPos="189.60" arrivalSpeed="12.43" duration="36.00" routeLength="395.22" waitingTime="0.00" waitingCount="0" stopTime="0.00" timeLoss="3.85" rerouteNo="0" devices="tripinfo_NS.0 routing_NS.0" vType="DEFAULT_VEHTYPE" speedFactor="1.11" vaporized=""/>
    <tripinfo id="SN.0" depart="0.00" departLane="3_1_2" departPos="5.10" departSpeed="0.00" departDelay="0.00" arrival="38.00" arrivalLane="1_5_1" arrivalPos="189.60" arrivalSpeed="11.30" duration="38.00" routeLength="395.22" waitingTime="0.00" waitingCount="0" stopTime="0.00" timeLoss="3.65" rerouteNo="0" devices="tripinfo_SN.0 routing_SN.0" vType="DEFAULT_VEHTYPE" speedFactor="1.04" vaporized=""/>
    <tripinfo id="SE.0" depart="0.00" departLane="3_1_1" departPos="5.10" departSpeed="0.00" departDelay="0.00" arrival="39.00" arrivalLane="1_4_1" arrivalPos="186.40" arrivalSpeed="11.11" duration="39.00" routeLength="379.93" waitingTime="0.00" waitingCount="0" stopTime="0.00" timeLoss="4.24" rerouteNo="0" devices="tripinfo_SE.0 routing_SE.0" vType="DEFAULT_VEHTYPE" speedFactor="0.99" vaporized=""/>
    <tripinfo id="EN.0" depart="0.00" departLane="4_1_1" departPos="5.10" departSpeed="0.00" departDelay="0.00" arrival="47.00" arrivalLane="1_5_1" arrivalPos="189.60" arrivalSpeed="11.79" duration="47.00" routeLength="382.62" waitingTime="6.50" waitingCount="1" stopTime="0.00" timeLoss="14.25" rerouteNo="0" devices="tripinfo_EN.0 routing_EN.0" vType="DEFAULT_VEHTYPE" speedFactor="1.06" vaporized=""/>
    <tripinfo id="WN.0" depart="2.50" departLane="2_1_1" departPos="5.10" departSpeed="0.00" departDelay="2.50" arrival="48.00" arrivalLane="1_5_2" arrivalPos="189.60" arrivalSpeed="12.90" duration="45.50" routeLength="392.90" waitingTime="0.00" waitingCount="0" stopTime="0.00" timeLoss="14.77" rerouteNo="0" devices="tripinfo_WN.0 routing_WN.0" vType="DEFAULT_VEHTYPE" speedFactor="1.15" vaporized=""/>
    <tripinfo id="WE.0" depart="0.00" departLane="2_1_1" departPos="5.10" departSpeed="0.00" departDelay="0.00" arrival="49.50" arrivalLane="1_4_1" arrivalPos="186.40" arrivalSpeed="10.30" duration="49.50" routeLength="395.13" waitingTime="6.00" waitingCount="1" stopTime="0.00" timeLoss="12.99" rerouteNo="0" devices="tripinfo_WE.0 routing_WE.0" vType="DEFAULT_VEHTYPE" speedFactor="0.97" vaporized=""/>
    <tripinfo id="ES.0" depart="0.00" departLane="4_1_2" departPos="5.10" departSpeed="0.00" departDelay="0.00" arrival="52.00" arrivalLane="1_3_2" arrivalPos="189.60" arrivalSpeed="11.37" duration="52.00" routeLength="392.89" waitingTime="6.50" waitingCount="2" stopTime="0.00" timeLoss="16.97" rerouteNo="0" devices="tripinfo_ES.0 routing_ES.0" vType="DEFAULT_VEHTYPE" speedFactor="1.02" vaporized=""/>
    <tripinfo id="WS.0" depart="5.00" departLane="2_1_1" departPos="5.10" departSpeed="0.00" departDelay="5.00" arrival="54.00" arrivalLane="1_3_1" arrivalPos="189.60" arrivalSpeed="10.12" duration="49.00" routeLength="385.10" waitingTime="0.00" waitingCount="0" stopTime="0.00" timeLoss="10.67" rerouteNo="0" devices="tripinfo_WS.0 routing_WS.0" vType="DEFAULT_VEHTYPE" speedFactor="0.91" vaporized=""/>
    <tripinfo id="EW.0" depart="2.50" departLane="4_1_2" departPos="5.10" departSpeed="0.00" departDelay="2.50" arrival="54.50" arrivalLane="1_2_1" arrivalPos="186.40" arrivalSpeed="10.85" duration="52.00" routeLength="394.90" waitingTime="2.00" waitingCount="1" stopTime="0.00" timeLoss="15.52" rerouteNo="0" devices="tripinfo_EW.0 routing_EW.0" vType="DEFAULT_VEHTYPE" speedFactor="0.97" vaporized=""/>
    <tripinfo id="NE.0" depart="0.00" departLane="5_1_3" departPos="5.10" departSpeed="0.00" departDelay="0.00" arrival="63.00" arrivalLane="1_4_2" arrivalPos="186.40" arrivalSpeed="13.00" duration="63.00" routeLength="392.89" waitingTime="23.00" waitingCount="1" stopTime="0.00" timeLoss="34.26" rerouteNo="0" devices="tripinfo_NE.0 routing_NE.0" vType="DEFAULT_VEHTYPE" speedFactor="1.24" vaporized=""/>
    <tripinfo id="NW.0" depart="2.50" departLane="5_1_1" departPos="5.10" departSpeed="0.00" departDelay="2.50" arrival="63.00" arrivalLane="1_2_1" arrivalPos="186.40" arrivalSpeed="11.62" duration="60.50" routeLength="382.62" waitingTime="22.00" waitingCount="1" stopTime="0.00" timeLoss="28.46" rerouteNo="0" devices="tripinfo_NW.0 routing_NW.0" vType="DEFAULT_VEHTYPE" speedFactor="1.09" vaporized=""/>
    <tripinfo id="NS.1" depart="23.50" departLane="5_1_2" departPos="5.10" departSpeed="0.00" departDelay="0.06" arrival="64.00" arrivalLane="1_3_1" arrivalPos="189.60" arrivalSpeed="10.73" duration="40.50" routeLength="395.22" waitingTime="0.00" waitingCount="0" stopTime="0.00" timeLoss="3.45" rerouteNo="0" devices="tripinfo_NS.1 routing_NS.1" vType="DEFAULT_VEHTYPE" speedFactor="0.96" vaporized=""/>
    <tripinfo id="SW.0" depart="0.00" departLane="3_1_3" departPos="5.10" departSpeed="0.00" departDelay="0.00" arrival="64.50" arrivalLane="1_2_1" arrivalPos="186.40" arrivalSpeed="12.78" duration="64.50" routeLength="392.89" waitingTime="23.00" waitingCount="1" stopTime="0.00" timeLoss="33.35" rerouteNo="0" devices="tripinfo_SW.0 routing_SW.0" vType="DEFAULT_VEHTYPE" speedFactor="1.14" vaporized=""/>
    <tripinfo id="SN.1" depart="34.50" departLane="3_1_1" departPos="5.10" departSpeed="0.00" departDelay="0.41" arrival="77.00" arrivalLane="1_5_1" arrivalPos="189.60" arrivalSpeed="11.12" duration="42.50" routeLength="395.22" waitingTime="1.00" waitingCount="1" stopTime="0.00" timeLoss="8.28" rerouteNo="0" devices="tripinfo_SN.1 routing_SN.1" vType="DEFAULT_VEHTYPE" speedFactor="1.04" vaporized=""/>
    <tripinfo id="NS.2" depart="47.00" departLane="5_1_1" departPos="5.10" departSpeed="0.00" departDelay="0.12" arrival="89.00" arrivalLane="1_3_1" arrivalPos="189.60" arrivalSpeed="9.91" duration="42.00" routeLength="395.22" waitingTime="0.00" waitingCount="0" stopTime="0.00" timeLoss="1.97" rerouteNo="0" devices="tripinfo_NS.2 routing_NS.2" vType="DEFAULT_VEHTYPE" speedFactor="0.88" vaporized=""/>
    <tripinfo id="NW.1" depart="62.50" departLane="5_1_1" departPos="5.10" departSpeed="0.00" departDelay="0.00" arrival="99.00" arrivalLane="1_2_1" arrivalPos="186.40" arrivalSpeed="12.27" duration="36.50" routeLength="382.62" waitingTime="0.00" waitingCount="0" stopTime="0.00" timeLoss="4.84" rerouteNo="0" devices="tripinfo_NW.1 routing_NW.1" vType="DEFAULT_VEHTYPE" speedFactor="1.10" vaporized=""/>
    <tripinfo id="SN.2" depart="68.50" departLane="3_1_2" departPos="5.10" departSpeed="0.00" departDelay="0.32" arrival="107.00" arrivalLane="1_5_1" arrivalPos="189.60" arrivalSpeed="10.78" duration="38.50" routeLength="395.22" waitingTime="0.00" waitingCount="0" stopTime="0.00" timeLoss="3.21" rerouteNo="0" devices="tripinfo_SN.2 routing_SN.2" vType="DEFAULT_VEHTYPE" speedFactor="1.01" vaporized=""/>
    <tripinfo id="SE.1" depart="68.50" departLane="3_1_1" departPos="5.10" departSpeed="0.00" departDelay="0.32" arrival="108.00" arrivalLane="1_4_1" arrivalPos="186.40" arrivalSpeed="10.65" duration="39.50" routeLength="379.93" waitingTime="0.00" waitingCount="0" stopTime="0.00" timeLoss="3.01" rerouteNo="0" devices="tripinfo_SE.1 routing_SE.1" vType="DEFAULT_VEHTYPE" speedFactor="0.95" vaporized=""/>
    <tripinfo id="NS.3" depart="70.50" departLane="5_1_2" departPos="5.10" departSpeed="0.00" departDelay="0.19" arrival="109.00" arrivalLane="1_3_1" arrivalPos="189.60" arrivalSpeed="10.86" duration="38.50" routeLength="395.22" waitingTime="0.00" waitingCount="0" stopTime="0.00" timeLoss="1.85" rerouteNo="0" devices="tripinfo_NS.3 routing_NS.3" vType="DEFAULT_VEHTYPE" speedFactor="0.97" vaporized=""/>
    <tripinfo id="WE.1" depart="64.50" departLane="2_1_1" departPos="5.10" departSpeed="0.00" departDelay="2.00" arrival="120.00" arrivalLane="1_4_1" arrivalPos="186.40" arrivalSpeed="12.47" duration="55.50" routeLength="395.13" waitingTime="16.50" waitingCount="1" stopTime="0.00" timeLoss="23.97" rerouteNo="0" devices="tripinfo_WE.1 routing_WE.1" vType="DEFAULT_VEHTYPE" speedFactor="1.13" vaporized=""/>
    <tripinfo id="WS.1" depart="83.50" departLane="2_1_1" departPos="5.10" departSpeed="0.00" departDelay="0.17" arrival="123.50" arrivalLane="1_3_1" arrivalPos="189.60" arrivalSpeed="11.08" duration="40.00" routeLength="385.10" waitingTime="0.00" waitingCount="0" stopTime="0.00" timeLoss="4.49" rerouteNo="0" devices="tripinfo_WS.1 routing_WS.1" vType="DEFAULT_VEHTYPE" speedFactor="0.99" vaporized=""/>
    <tripinfo id="NS.4" depart="94.00" departLane="5_1_1" departPos="5.10" departSpeed="0.00" departDelay="0.25" arrival="133.50" arrivalLane="1_3_1" arrivalPos="189.60" arrivalSpeed="11.37" duration="39.50" routeLength="395.22" waitingTime="0.00" waitingCount="0" stopTime="0.00" timeLoss="4.80" rerouteNo="0" devices="tripinfo_NS.4 routing_NS.4" vType="DEFAULT_VEHTYPE" speedFactor="1.02" vaporized=""/>
    <tripinfo id="SN.3" depart="102.50" departLane="3_1_1" departPos="5.10" departSpeed="0.00" departDelay="0.23" arrival="141.00" arrivalLane="1_5_1" arrivalPos="189.60" arrivalSpeed="11.00" duration="38.50" routeLength="395.22" waitingTime="0.00" waitingCount="0" stopTime="0.00" timeLoss="3.15" rerouteNo="0" devices="tripinfo_SN.3 routing_SN.3" vType="DEFAULT_VEHTYPE" speedFactor="1.01" vaporized=""/>
    <tripinfo id="NS.5" depart="117.50" departLane="5_1_1" departPos="5.10" departSpeed="0.00" departDelay="0.31" arrival="157.50" arrivalLane="1_3_1" arrivalPos="189.60" arrivalSpeed="10.24" duration="40.00" routeLength="395.22" waitingTime="0.00" waitingCount="0" stopTime="0.00" timeLoss="3.37" rerouteNo="0" devices="tripinfo_NS.5 routing_NS.5" vType="DEFAULT_VEHTYPE" speedFactor="0.97" vaporized=""/>
    <tripinfo id="NW.2" depart="125.00" departLane="5_1_1" departPos="5.10" departSpeed="0.00" departDelay="0.00" arrival="163.50" arrivalLane="1_2_1" arrivalPos="186.40" arrivalSpeed="11.56" duration="38.50" routeLength="382.62" waitingTime="0.00" waitingCount="0" stopTime="0.00" timeLoss="4.87" rerouteNo="0" devices="tripinfo_NW.2 routing_NW.2" vType="DEFAULT_VEHTYPE" speedFactor="1.04" vaporized=""/>
    <personinfo id="person_SE_diag.0" depart="2.00" type="DEFAULT_PEDTYPE" speedFactor="0.90" duration="166.00" waitingTime="0.00" timeLoss="16.12" traveltime="166.00">
        <walk depart="2.00" departPos="100.00" arrival="168.00" arrivalPos="93.20" duration="166.00" routeLength="187.66" timeLoss="16.12" maxSpeed="1.25"/>
    </personinfo>
    <tripinfo id="SE.2" depart="136.50" departLane="3_1_1" departPos="5.10" departSpeed="0.00" departDelay="0.14" arrival="172.00" arrivalLane="1_4_1" arrivalPos="186.40" arrivalSpeed="12.28" duration="35.50" routeLength="379.93" waitingTime="0.00" waitingCount="0" stopTime="0.00" timeLoss="4.37" rerouteNo="0" devices="tripinfo_SE.2 routing_SE.2" vType="DEFAULT_VEHTYPE" speedFactor="1.11" vaporized=""/>
    <tripinfo id="SN.4" depart="136.50" departLane="3_1_2" departPos="5.10" departSpeed="0.00" departDelay="0.14" arrival="178.00" arrivalLane="1_5_1" arrivalPos="189.60" arrivalSpeed="10.34" duration="41.50" routeLength="395.22" waitingTime="0.00" waitingCount="0" stopTime="0.00" timeLoss="3.39" rerouteNo="0" devices="tripinfo_SN.4 routing_SN.4" vType="DEFAULT_VEHTYPE" speedFactor="0.93" vaporized=""/>
    <personinfo id="person_EW_n.0" depart="15.50" type="DEFAULT_PEDTYPE" speedFactor="1.17" duration="163.50" waitingTime="0.00" timeLoss="34.05" traveltime="163.50">
        <walk depart="15.50" departPos="100.00" arrival="179.00" arrivalPos="93.20" duration="163.50" routeLength="210.56" timeLoss="34.05" maxSpeed="1.63"/>
    </personinfo>
    <tripinfo id="NS.6" depart="141.00" departLane="5_1_2" departPos="5.10" departSpeed="0.00" departDelay="0.37" arrival="183.00" arrivalLane="1_3_1" arrivalPos="189.60" arrivalSpeed="9.83" duration="42.00" routeLength="395.22" waitingTime="0.00" waitingCount="0" stopTime="0.00" timeLoss="1.76" rerouteNo="0" devices="tripinfo_NS.6 routing_NS.6" vType="DEFAULT_VEHTYPE" speedFactor="0.88" vaporized=""/>
    <personinfo id="person_WE_n.0" depart="12.50" type="DEFAULT_PEDTYPE" speedFactor="1.09" duration="172.50" waitingTime="0.00" timeLoss="24.69" traveltime="172.50">
        <walk depart="12.50" departPos="100.00" arrival="185.00" arrivalPos="93.20" duration="172.50" routeLength="224.16" timeLoss="24.69" maxSpeed="1.52"/>
    </personinfo>
    <personinfo id="person_EW_n.1" depart="29.00" type="DEFAULT_PEDTYPE" speedFactor="1.04" duration="162.00" waitingTime="0.00" timeLoss="16.23" traveltime="162.00">
        <walk depart="29.00" departPos="100.00" arrival="191.00" arrivalPos="93.20" duration="162.00" routeLength="210.56" timeLoss="16.23" maxSpeed="1.44"/>
    </personinfo>
    <personinfo id="person_WE_s.0" depart="2.00" type="DEFAULT_PEDTYPE" speedFactor="0.98" duration="191.50" waitingTime="0.00" timeLoss="37.00" traveltime="191.50">
        <walk depart="2.00" departPos="100.00" arrival="193.50" arrivalPos="93.20" duration="191.50" routeLength="209.26" timeLoss="37.00" maxSpeed="1.35"/>
    </personinfo>
    <tripinfo id="NS.7" depart="164.50" departLane="5_1_1" departPos="5.10" departSpeed="0.00" departDelay="0.43" arrival="204.00" arrivalLane="1_3_1" arrivalPos="189.60" arrivalSpeed="10.45" duration="39.50" routeLength="395.22" waitingTime="0.00" waitingCount="0" stopTime="0.00" timeLoss="3.63" rerouteNo="0" devices="tripinfo_NS.7 routing_NS.7" vType="DEFAULT_VEHTYPE" speedFactor="0.99" vaporized=""/>
    <personinfo id="person_NE_diag.0" depart="21.50" type="DEFAULT_PEDTYPE" speedFactor="1.00" duration="184.00" waitingTime="0.00" timeLoss="23.87" traveltime="184.00">
        <walk depart="21.50" departPos="100.00" arrival="205.50" arrivalPos="93.20" duration="184.00" routeLength="223.02" timeLoss="23.87" maxSpeed="1.39"/>
    </personinfo>
    <personinfo id="person_NS_e.0" depart="12.50" type="DEFAULT_PEDTYPE" speedFactor="0.96" duration="193.00" waitingTime="0.00" timeLoss="27.61" traveltime="193.00">
        <walk depart="12.50" departPos="100.00" arrival="205.50" arrivalPos="94.80" duration="193.00" routeLength="219.53" timeLoss="27.61" maxSpeed="1.33"/>
    </personinfo>
    <tripinfo id="SN.5" depart="170.50" departLane="3_1_1" departPos="5.10" departSpeed="0.00" departDelay="0.05" arrival="212.50" arrivalLane="1_5_1" arrivalPos="189.60" arrivalSpeed="9.85" duration="42.00" routeLength="395.22" waitingTime="0.00" waitingCount="0" stopTime="0.00" timeLoss="1.75" rerouteNo="0" devices="tripinfo_SN.5 routing_SN.5" vType="DEFAULT_VEHTYPE" speedFactor="0.88" vaporized=""/>
    <personinfo id="person_SE_diag.1" depart="66.50" type="DEFAULT_PEDTYPE" speedFactor="1.00" duration="151.00" waitingTime="0.00" timeLoss="15.73" traveltime="151.00">
        <walk depart="66.50" departPos="100.00" arrival="217.50" arrivalPos="93.20" duration="151.00" routeLength="187.66" timeLoss="15.73" maxSpeed="1.39"/>
    </personinfo>
    <tripinfo id="WE.2" depart="125.00" departLane="2_1_1" departPos="5.10" departSpeed="0.00" departDelay="0.00" arrival="219.00" arrivalLane="1_4_1" arrivalPos="186.40" arrivalSpeed="12.24" duration="94.00" routeLength="395.13" waitingTime="54.50" waitingCount="1" stopTime="0.00" timeLoss="62.78" rerouteNo="0" devices="tripinfo_WE.2 routing_WE.2" vType="DEFAULT_VEHTYPE" speedFactor="1.14" vaporized=""/>
    <personinfo id="person_NW_diag.0" depart="58.50" type="DEFAULT_PEDTYPE" speedFactor="0.93" duration="165.00" waitingTime="0.00" timeLoss="16.95" traveltime="165.00">
        <walk depart="58.50" departPos="100.00" arrival="223.50" arrivalPos="93.20" duration="165.00" routeLength="190.90" timeLoss="16.95" maxSpeed="1.29"/>
    </personinfo>
    <tripinfo id="EW.1" depart="187.50" departLane="4_1_2" departPos="5.10" departSpeed="0.00" departDelay="0.00" arrival="227.00" arrivalLane="1_2_1" arrivalPos="186.40" arrivalSpeed="10.80" duration="39.50" routeLength="394.90" waitingTime="0.00" waitingCount="0" stopTime="0.00" timeLoss="2.65" rerouteNo="0" devices="tripinfo_EW.1 routing_EW.1" vType="DEFAULT_VEHTYPE" speedFactor="0.96" vaporized=""/>
    <tripinfo id="WS.2" depart="167.00" departLane="2_1_1" departPos="5.10" departSpeed="0.00" departDelay="0.33" arrival="239.50" arrivalLane="1_3_1" arrivalPos="189.60" arrivalSpeed="10.48" duration="72.50" routeLength="385.10" waitingTime="24.00" waitingCount="2" stopTime="0.00" timeLoss="36.85" rerouteNo="0" devices="tripinfo_WS.2 routing_WS.2" vType="DEFAULT_VEHTYPE" speedFactor="0.98" vaporized=""/>
    <tripinfo id="NW.3" depart="187.50" departLane="5_1_1" departPos="5.10" departSpeed="0.00" departDelay="0.00" arrival="240.50" arrivalLane="1_2_1" arrivalPos="186.40" arrivalSpeed="11.36" duration="53.00" routeLength="382.62" waitingTime="8.50" waitingCount="1" stopTime="0.00" timeLoss="18.43" rerouteNo="0" devices="tripinfo_NW.3 routing_NW.3" vType="DEFAULT_VEHTYPE" speedFactor="1.01" vaporized=""/>
    <tripinfo id="NE.1" depart="187.50" departLane="5_1_3" departPos="5.10" departSpeed="0.00" departDelay="0.00" arrival="241.50" arrivalLane="1_4_2" arrivalPos="186.40" arrivalSpeed="14.40" duration="54.00" routeLength="392.89" waitingTime="15.00" waitingCount="1" stopTime="0.00" timeLoss="26.62" rerouteNo="0" devices="tripinfo_NE.1 routing_NE.1" vType="DEFAULT_VEHTYPE" speedFactor="1.30" vaporized=""/>
    <tripinfo id="NS.8" depart="188.00" departLane="5_1_2" departPos="5.10" departSpeed="0.00" departDelay="0.50" arrival="247.50" arrivalLane="1_3_1" arrivalPos="189.60" arrivalSpeed="8.43" duration="59.50" routeLength="395.22" waitingTime="2.50" waitingCount="1" stopTime="0.00" timeLoss="12.53" rerouteNo="0" devices="tripinfo_NS.8 routing_NS.8" vType="DEFAULT_VEHTYPE" speedFactor="0.75" vaporized=""/>
    <tripinfo id="WE.3" depart="187.50" departLane="2_1_1" departPos="5.10" departSpeed="0.00" departDelay="0.00" arrival="250.00" arrivalLane="1_4_1" arrivalPos="186.40" arrivalSpeed="9.36" duration="62.50" routeLength="395.13" waitingTime="8.50" waitingCount="2" stopTime="0.00" timeLoss="20.08" rerouteNo="0" devices="tripinfo_WE.3 routing_WE.3" vType="DEFAULT_VEHTYPE" speedFactor="0.84" vaporized=""/>
    <tripinfo id="EN.1" depart="187.50" departLane="4_1_1" departPos="5.10" departSpeed="0.00" departDelay="0.00" arrival="253.50" arrivalLane="1_5_1" arrivalPos="189.60" arrivalSpeed="7.72" duration="66.00" routeLength="382.62" waitingTime="11.50" waitingCount="1" stopTime="0.00" timeLoss="16.66" rerouteNo="0" devices="tripinfo_EN.1 routing_EN.1" vType="DEFAULT_VEHTYPE" speedFactor="0.71" vaporized=""/>
    <tripinfo id="SN.6" depart="205.00" departLane="3_1_2" departPos="5.10" departSpeed="0.00" departDelay="0.45" arrival="254.50" arrivalLane="1_5_2" arrivalPos="189.60" arrivalSpeed="11.46" duration="49.50" routeLength="395.22" waitingTime="7.50" waitingCount="1" stopTime="0.00" timeLoss="15.45" rerouteNo="0" devices="tripinfo_SN.6 routing_SN.6" vType="DEFAULT_VEHTYPE" speedFactor="1.04" vaporized=""/>
    <tripinfo id="NS.9" depart="211.00" departLane="5_1_1" departPos="5.10" departSpeed="0.00" departDelay="0.06" arrival="255.50" arrivalLane="1_3_1" arrivalPos="189.60" arrivalSpeed="10.55" duration="44.50" routeLength="395.22" waitingTime="0.50" waitingCount="1" stopTime="0.00" timeLoss="7.45" rerouteNo="0" devices="tripinfo_NS.9 routing_NS.9" vType="DEFAULT_VEHTYPE" speedFactor="0.96" vaporized=""/>
    <personinfo id="person_SE_diag.2" depart="126.50" type="DEFAULT_PEDTYPE" speedFactor="1.15" duration="131.50" waitingTime="0.00" timeLoss="13.86" traveltime="131.50">
        <walk depart="126.50" departPos="100.00" arrival="258.00" arrivalPos="93.20" duration="131.50" routeLength="187.66" timeLoss="13.86" maxSpeed="1.60"/>
    </personinfo>
    <tripinfo id="SE.3" depart="205.00" departLane="3_1_1" departPos="5.10" departSpeed="0.00" departDelay="0.45" arrival="261.50" arrivalLane="1_4_1" arrivalPos="186.40" arrivalSpeed="12.29" duration="56.50" routeLength="379.93" waitingTime="16.50" waitingCount="2" stopTime="0.00" timeLoss="25.58" rerouteNo="0" devices="tripinfo_SE.3 routing_SE.3" vType="DEFAULT_VEHTYPE" speedFactor="1.13" vaporized=""/>
    <personinfo id="person_NW_diag.1" depart="89.50" type="DEFAULT_PEDTYPE" speedFactor="0.88" duration="174.50" waitingTime="0.00" timeLoss="18.06" traveltime="174.50">
        <walk depart="89.50" departPos="100.00" arrival="264.00" arrivalPos="93.20" duration="174.50" routeLength="190.90" timeLoss="18.06" maxSpeed="1.22"/>
    </personinfo>
    <tripinfo id="NS.10" depart="234.50" departLane="5_1_1" departPos="5.10" departSpeed="0.00" departDelay="0.12" arrival="273.50" arrivalLane="1_3_1" arrivalPos="189.60" arrivalSpeed="11.00" duration="39.00" routeLength="395.22" waitingTime="0.00" waitingCount="0" stopTime="0.00" timeLoss="7.49" rerouteNo="0" devices="tripinfo_NS.10 routing_NS.10" vType="DEFAULT_VEHTYPE" speedFactor="1.13" vaporized=""/>
    <personinfo id="person_WE_s.2" depart="64.50" type="DEFAULT_PEDTYPE" speedFactor="1.20" duration="209.50" waitingTime="0.00" timeLoss="83.99" traveltime="209.50">
        <walk depart="64.50" departPos="100.00" arrival="274.00" arrivalPos="93.20" duration="209.50" routeLength="209.26" timeLoss="83.99" maxSpeed="1.67"/>
    </personinfo>
    <personinfo id="person_SN_e.0" depart="113.00" type="DEFAULT_PEDTYPE" speedFactor="1.04" duration="161.00" waitingTime="0.00" timeLoss="16.21" traveltime="161.00">
        <walk depart="113.00" departPos="100.00" arrival="274.00" arrivalPos="94.80" duration="161.00" routeLength="209.13" timeLoss="16.21" maxSpeed="1.44"/>
    </personinfo>
    <personinfo id="person_WE_s.1" depart="54.50" type="DEFAULT_PEDTYPE" speedFactor="1.08" duration="228.50" waitingTime="0.00" timeLoss="89.34" traveltime="228.50">
        <walk depart="54.50" departPos="100.00" arrival="283.00" arrivalPos="93.20" duration="228.50" routeLength="209.26" timeLoss="89.34" maxSpeed="1.50"/>
    </personinfo>
    <personinfo id="person_WE_s.4" depart="124.50" type="DEFAULT_PEDTYPE" speedFactor="1.08" duration="159.00" waitingTime="0.00" timeLoss="19.20" traveltime="159.00">
        <walk depart="124.50" departPos="100.00" arrival="283.50" arrivalPos="93.20" duration="159.00" routeLength="209.26" timeLoss="19.20" maxSpeed="1.50"/>
    </personinfo>
    <personinfo id="person_NE_diag.2" depart="102.50" type="DEFAULT_PEDTYPE" speedFactor="1.09" duration="181.00" waitingTime="0.00" timeLoss="31.62" traveltime="181.00">
        <walk depart="102.50" departPos="100.00" arrival="283.50" arrivalPos="93.20" duration="181.00" routeLength="225.71" timeLoss="31.62" maxSpeed="1.51"/>
    </personinfo>
    <personinfo id="person_WE_n.2" depart="80.00" type="DEFAULT_PEDTYPE" speedFactor="1.09" duration="204.00" waitingTime="0.00" timeLoss="55.66" traveltime="204.00">
        <walk depart="80.00" departPos="100.00" arrival="284.00" arrivalPos="93.20" duration="204.00" routeLength="224.16" timeLoss="55.66" maxSpeed="1.51"/>
    </personinfo>
    <personinfo id="person_EW_n.8" depart="118.00" type="DEFAULT_PEDTYPE" speedFactor="1.12" duration="167.00" waitingTime="0.00" timeLoss="31.70" traveltime="167.00">
        <walk depart="118.00" departPos="100.00" arrival="285.00" arrivalPos="93.20" duration="167.00" routeLength="210.56" timeLoss="31.70" maxSpeed="1.56"/>
    </personinfo>
    <personinfo id="person_NS_e.1" depart="71.50" type="DEFAULT_PEDTYPE" speedFactor="0.82" duration="214.00" waitingTime="0.00" timeLoss="21.74" traveltime="214.00">
        <walk depart="71.50" departPos="100.00" arrival="285.50" arrivalPos="94.80" duration="214.00" routeLength="219.53" timeLoss="21.74" maxSpeed="1.14"/>
    </personinfo>
    <personinfo id="person_WE_s.3" depart="77.50" type="DEFAULT_PEDTYPE" speedFactor="1.05" duration="209.50" waitingTime="0.00" timeLoss="65.43" traveltime="209.50">
        <walk depart="77.50" departPos="100.00" arrival="287.00" arrivalPos="93.20" duration="209.50" routeLength="209.26" timeLoss="65.43" maxSpeed="1.45"/>
    </personinfo>
    <personinfo id="person_EW_n.6" depart="107.50" type="DEFAULT_PEDTYPE" speedFactor="1.08" duration="181.50" waitingTime="0.00" timeLoss="41.18" traveltime="181.50">
        <walk depart="107.50" departPos="100.00" arrival="289.00" arrivalPos="93.20" duration="181.50" routeLength="210.56" timeLoss="41.18" maxSpeed="1.50"/>
    </personinfo>
    <tripinfo id="NW.4" depart="250.00" departLane="5_1_1" departPos="5.10" departSpeed="0.00" departDelay="0.00" arrival="290.00" arrivalLane="1_2_1" arrivalPos="186.40" arrivalSpeed="10.86" duration="40.00" routeLength="382.62" waitingTime="0.00" waitingCount="0" stopTime="0.00" timeLoss="4.50" rerouteNo="0" devices="tripinfo_NW.4 routing_NW.4" vType="DEFAULT_VEHTYPE" speedFactor="0.98" vaporized=""/>
    <tripinfo id="NS.11" depart="258.00" departLane="5_1_2" departPos="5.10" departSpeed="0.00" departDelay="0.18" arrival="290.00" arrivalLane="1_3_2" arrivalPos="189.60" arrivalSpeed="13.63" duration="32.00" routeLength="395.22" waitingTime="0.00" waitingCount="0" stopTime="0.00" timeLoss="4.00" rerouteNo="0" devices="tripinfo_NS.11 routing_NS.11" vType="DEFAULT_VEHTYPE" speedFactor="1.26" vaporized=""/>
    <personinfo id="person_NW_diag.3" depart="160.50" type="DEFAULT_PEDTYPE" speedFactor="1.13" duration="136.00" waitingTime="0.00" timeLoss="14.03" traveltime="136.00">
        <walk depart="160.50" departPos="100.00" arrival="296.50" arrivalPos="93.20" duration="136.00" routeLength="190.90" timeLoss="14.03" maxSpeed="1.57"/>
    </personinfo>
    <personinfo id="person_EW_n.2" depart="36.50" type="DEFAULT_PEDTYPE" speedFactor="0.96" duration="260.00" waitingTime="0.00" timeLoss="102.23" traveltime="260.00">
        <walk depart="36.50" departPos="100.00" arrival="296.50" arrivalPos="93.20" duration="260.00" routeLength="210.56" timeLoss="102.23" maxSpeed="1.33"/>
    </personinfo>
    <personinfo id="person_EW_n.3" depart="65.50" type="DEFAULT_PEDTYPE" speedFactor="0.97" duration="232.00" waitingTime="0.00" timeLoss="76.17" traveltime="232.00">
        <walk depart="65.50" departPos="100.00" arrival="297.50" arrivalPos="93.20" duration="232.00" routeLength="210.56" timeLoss="76.17" maxSpeed="1.35"/>
    </personinfo>
    <personinfo id="person_SW_diag.0" depart="59.00" type="DEFAULT_PEDTYPE" speedFactor="0.97" duration="239.00" waitingTime="0.00" timeLoss="68.15" traveltime="239.00">
        <walk depart="59.00" departPos="100.00" arrival="298.00" arrivalPos="93.20" duration="239.00" routeLength="230.53" timeLoss="68.15" maxSpeed="1.35"/>
    </personinfo>
    <personinfo id="person_NW_diag.2" depart="108.50" type="DEFAULT_PEDTYPE" speedFactor="0.80" duration="189.50" waitingTime="0.00" timeLoss="18.69" traveltime="189.50">
        <walk depart="108.50" departPos="100.00" arrival="298.00" arrivalPos="93.20" duration="189.50" routeLength="190.90" timeLoss="18.69" maxSpeed="1.12"/>
    </personinfo>
    <personinfo id="person_WE_n.1" depart="22.50" type="DEFAULT_PEDTYPE" speedFactor="0.93" duration="276.00" waitingTime="0.00" timeLoss="103.11" traveltime="276.00">
        <walk depart="22.50" departPos="100.00" arrival="298.50" arrivalPos="93.20" duration="276.00" routeLength="224.16" timeLoss="103.11" maxSpeed="1.30"/>
    </personinfo>
    <personinfo id="person_WE_n.3" depart="101.50" type="DEFAULT_PEDTYPE" speedFactor="0.95" duration="197.50" waitingTime="0.00" timeLoss="27.95" traveltime="197.50">
        <walk depart="101.50" departPos="100.00" arrival="299.00" arrivalPos="93.20" duration="197.50" routeLength="224.16" timeLoss="27.95" maxSpeed="1.32"/>
    </personinfo>
    <personinfo id="person_NE_diag.1" depart="40.50" type="DEFAULT_PEDTYPE" speedFactor="0.90" duration="259.50" waitingTime="0.00" timeLoss="78.37" traveltime="259.50">
        <walk depart="40.50" departPos="100.00" arrival="300.00" arrivalPos="93.20" duration="259.50" routeLength="225.71" timeLoss="78.37" maxSpeed="1.25"/>
    </personinfo>
    <personinfo id="person_EW_s.0" depart="31.00" type="DEFAULT_PEDTYPE" speedFactor="0.93" duration="270.00" waitingTime="0.00" timeLoss="97.04" traveltime="270.00">
        <walk depart="31.00" departPos="100.00" arrival="301.00" arrivalPos="93.20" duration="270.00" routeLength="222.86" timeLoss="97.04" maxSpeed="1.29"/>
    </personinfo>