<?xml version="1.0" encoding="UTF-8"?>

<!-- generated on 2025-03-17 12:04:32 by Eclipse SUMO GUI Version 1.22.0
<sumoConfiguration xmlns:xsi="http://www.w3.org/2001/XMLSchema-instance" xsi:noNamespaceSchemaLocation="http://sumo.dlr.de/xsd/sumoConfiguration.xsd">

    <input>
        <net-file value="C:\Users\chris\PycharmProjects\UW_CET593_project2\environment/network_model/UW_intersection_pedestrian_X.net.xml"/>
        <route-files value="C:\Users\chris\PycharmProjects\UW_CET593_project2\environment/network_model/UW_IntersectionNormalDemand.rou.xml"/>
        <additional-files value="C:\Users\chris\PycharmProjects\UW_CET593_project2\environment/network_model/UW_intersection_Exclusive.add.xml"/>
    </input>

    <output>
        <queue-output value="C:\Users\chris\PycharmProjects\UW_CET593_project2\environment/simulation_data/UW_intersection/queues_multi_scale_symmetric_pene_80.xml"/>
        <tripinfo-output value="C:\Users\chris\PycharmProjects\UW_CET593_project2\environment/simulation_data/UW_intersection/tripinfo_multi_scale_symmetric_pene_80.xml"/>
    </output>

    <time>
        <begin value="0"/>
        <step-length value="0.5"/>
    </time>

    <processing>
        <waiting-time-memory value="1000"/>
    </processing>

    <report>
        <verbose value="true"/>
        <no-step-log value="true"/>
    </report>

    <traci_server>
        <remote-port value="55759"/>
    </traci_server>

    <gui_only>
        <start value="true"/>
    </gui_only>

</sumoConfiguration>
-->

<tripinfos xmlns:xsi="http://www.w3.org/2001/XMLSchema-instance" xsi:noNamespaceSchemaLocation="http://sumo.dlr.de/xsd/tripinfo_file.xsd">
    <tripinfo id="NS.0" depart="0.00" departLane="5_1_1" departPos="5.10" departSpeed="0.00" departDelay="0.00" arrival="37.50" arrivalLane="1_3_1" arrivalPos="189.60" arrivalSpeed="11.84" duration="37.50" routeLength="395.22" waitingTime="0.00" waitingCount="0" stopTime="0.00" timeLoss="3.75" rerouteNo="0" devices="tripinfo_NS.0 routing_NS.0" vType="DEFAULT_VEHTYPE" speedFactor="1.06" vaporized=""/>
    <tripinfo id="SN.0" depart="0.00" departLane="3_1_2" departPos="5.10" departSpeed="0.00" departDelay="0.00" arrival="37.50" arrivalLane="1_5_2" arrivalPos="189.60" arrivalSpeed="11.73" duration="37.50" routeLength="395.22" waitingTime="0.00" waitingCount="0" stopTime="0.00" timeLoss="3.61" rerouteNo="0" devices="tripinfo_SN.0 routing_SN.0" vType="DEFAULT_VEHTYPE" speedFactor="1.05" vaporized=""/>
    <tripinfo id="SE.0" depart="0.00" departLane="3_1_1" departPos="5.10" departSpeed="0.00" departDelay="0.00" arrival="38.50" arrivalLane="1_4_1" arrivalPos="186.40" arrivalSpeed="11.10" duration="38.50" routeLength="379.93" waitingTime="0.00" waitingCount="0" stopTime="0.00" timeLoss="3.47" rerouteNo="0" devices="tripinfo_SE.0 routing_SE.0" vType="DEFAULT_VEHTYPE" speedFactor="0.99" vaporized=""/>
    <tripinfo id="SW.0" depart="0.00" departLane="3_1_3" departPos="5.10" departSpeed="0.00" departDelay="0.00" arrival="42.00" arrivalLane="1_2_1" arrivalPos="186.40" arrivalSpeed="10.12" duration="42.00" routeLength="392.89" waitingTime="0.00" waitingCount="0" stopTime="0.00" timeLoss="2.77" rerouteNo="0" devices="tripinfo_SW.0 routing_SW.0" vType="DEFAULT_VEHTYPE" speedFactor="0.90" vaporized=""/>
    <tripinfo id="NE.0" depart="0.00" departLane="5_1_3" departPos="5.10" departSpeed="0.00" departDelay="0.00" arrival="42.50" arrivalLane="1_4_2" arrivalPos="186.40" arrivalSpeed="10.71" duration="42.50" routeLength="392.89" waitingTime="0.00" waitingCount="0" stopTime="0.00" timeLoss="5.50" rerouteNo="0" devices="tripinfo_NE.0 routing_NE.0" vType="DEFAULT_VEHTYPE" speedFactor="0.96" vaporized=""/>
    <tripinfo id="NW.0" depart="2.50" departLane="5_1_1" departPos="5.10" departSpeed="0.00" departDelay="2.50" arrival="43.50" arrivalLane="1_2_1" arrivalPos="186.40" arrivalSpeed="11.06" duration="41.00" routeLength="382.62" waitingTime="0.00" waitingCount="0" stopTime="0.00" timeLoss="5.84" rerouteNo="0" devices="tripinfo_NW.0 routing_NW.0" vType="DEFAULT_VEHTYPE" speedFactor="0.99" vaporized=""/>
    <tripinfo id="WE.0" depart="0.00" departLane="2_1_1" departPos="5.10" departSpeed="0.00" departDelay="0.00" arrival="45.50" arrivalLane="1_4_1" arrivalPos="186.40" arrivalSpeed="12.26" duration="45.50" routeLength="395.13" waitingTime="2.50" waitingCount="1" stopTime="0.00" timeLoss="12.90" rerouteNo="0" devices="tripinfo_WE.0 routing_WE.0" vType="DEFAULT_VEHTYPE" speedFactor="1.09" vaporized=""/>
    <tripinfo id="EN.0" depart="0.00" departLane="4_1_1" departPos="5.10" departSpeed="0.00" departDelay="0.00" arrival="46.00" arrivalLane="1_5_1" arrivalPos="189.60" arrivalSpeed="10.98" duration="46.00" routeLength="382.62" waitingTime="2.50" waitingCount="1" stopTime="0.00" timeLoss="10.65" rerouteNo="0" devices="tripinfo_EN.0 routing_EN.0" vType="DEFAULT_VEHTYPE" speedFactor="0.98" vaporized=""/>
    <tripinfo id="WN.0" depart="2.50" departLane="2_1_1" departPos="5.10" departSpeed="0.00" departDelay="2.50" arrival="49.00" arrivalLane="1_5_2" arrivalPos="189.60" arrivalSpeed="12.16" duration="46.50" routeLength="392.90" waitingTime="0.50" waitingCount="1" stopTime="0.00" timeLoss="14.49" rerouteNo="0" devices="tripinfo_WN.0 routing_WN.0" vType="DEFAULT_VEHTYPE" speedFactor="1.11" vaporized=""/>
    <tripinfo id="ES.0" depart="0.00" departLane="4_1_2" departPos="5.10" departSpeed="0.00" departDelay="0.00" arrival="49.50" arrivalLane="1_3_2" arrivalPos="189.60" arrivalSpeed="11.68" duration="49.50" routeLength="392.89" waitingTime="4.00" waitingCount="2" stopTime="0.00" timeLoss="15.47" rerouteNo="0" devices="tripinfo_ES.0 routing_ES.0" vType="DEFAULT_VEHTYPE" speedFactor="1.04" vaporized=""/>
    <tripinfo id="WS.0" depart="5.00" departLane="2_1_1" departPos="5.10" departSpeed="0.00" departDelay="5.00" arrival="49.50" arrivalLane="1_3_1" arrivalPos="189.60" arrivalSpeed="12.02" duration="44.50" routeLength="385.10" waitingTime="0.00" waitingCount="0" stopTime="0.00" timeLoss="12.03" rerouteNo="0" devices="tripinfo_WS.0 routing_WS.0" vType="DEFAULT_VEHTYPE" speedFactor="1.07" vaporized=""/>
    <tripinfo id="EW.0" depart="2.50" departLane="4_1_2" departPos="5.10" departSpeed="0.00" departDelay="2.50" arrival="53.50" arrivalLane="1_2_1" arrivalPos="186.40" arrivalSpeed="10.73" duration="51.00" routeLength="394.90" waitingTime="0.50" waitingCount="1" stopTime="0.00" timeLoss="14.60" rerouteNo="0" devices="tripinfo_EW.0 routing_EW.0" vType="DEFAULT_VEHTYPE" speedFactor="0.98" vaporized=""/>
    <tripinfo id="NS.1" depart="19.00" departLane="5_1_2" departPos="5.10" departSpeed="0.00" departDelay="0.25" arrival="56.00" arrivalLane="1_3_1" arrivalPos="189.60" arrivalSpeed="13.00" duration="37.00" routeLength="395.22" waitingTime="0.00" waitingCount="0" stopTime="0.00" timeLoss="7.45" rerouteNo="0" devices="tripinfo_NS.1 routing_NS.1" vType="DEFAULT_VEHTYPE" speedFactor="1.21" vaporized=""/>
    <tripinfo id="SN.1" depart="27.50" departLane="3_1_1" departPos="5.10" departSpeed="0.00" departDelay="0.23" arrival="66.50" arrivalLane="1_5_1" arrivalPos="189.60" arrivalSpeed="12.74" duration="39.00" routeLength="395.22" waitingTime="0.00" waitingCount="0" stopTime="0.00" timeLoss="7.94" rerouteNo="0" devices="tripinfo_SN.1 routing_SN.1" vType="DEFAULT_VEHTYPE" speedFactor="1.15" vaporized=""/>
    <tripinfo id="NS.2" depart="37.50" departLane="5_1_2" departPos="5.10" departSpeed="0.00" departDelay="0.00" arrival="73.50" arrivalLane="1_3_1" arrivalPos="189.60" arrivalSpeed="12.68" duration="36.00" routeLength="395.22" waitingTime="0.00" waitingCount="0" stopTime="0.00" timeLoss="4.59" rerouteNo="0" devices="tripinfo_NS.2 routing_NS.2" vType="DEFAULT_VEHTYPE" speedFactor="1.13" vaporized=""/>
    <tripinfo id="NW.1" depart="50.00" departLane="5_1_1" departPos="5.10" departSpeed="0.00" departDelay="0.00" arrival="90.00" arrivalLane="1_2_1" arrivalPos="186.40" arrivalSpeed="10.92" duration="40.00" routeLength="382.62" waitingTime="0.00" waitingCount="0" stopTime="0.00" timeLoss="4.34" rerouteNo="0" devices="tripinfo_NW.1 routing_NW.1" vType="DEFAULT_VEHTYPE" speedFactor="0.98" vaporized=""/>
    <tripinfo id="SN.2" depart="55.00" departLane="3_1_2" departPos="5.10" departSpeed="0.00" departDelay="0.45" arrival="91.50" arrivalLane="1_5_1" arrivalPos="189.60" arrivalSpeed="12.95" duration="36.50" routeLength="395.22" waitingTime="0.00" waitingCount="0" stopTime="0.00" timeLoss="5.61" rerouteNo="0" devices="tripinfo_SN.2 routing_SN.2" vType="DEFAULT_VEHTYPE" speedFactor="1.16" vaporized=""/>
    <tripinfo id="NS.3" depart="56.50" departLane="5_1_2" departPos="5.10" departSpeed="0.00" departDelay="0.25" arrival="99.00" arrivalLane="1_3_1" arrivalPos="189.60" arrivalSpeed="9.79" duration="42.50" routeLength="395.22" waitingTime="0.00" waitingCount="0" stopTime="0.00" timeLoss="2.08" rerouteNo="0" devices="tripinfo_NS.3 routing_NS.3" vType="DEFAULT_VEHTYPE" speedFactor="0.87" vaporized=""/>
    <tripinfo id="SE.1" depart="55.00" departLane="3_1_1" departPos="5.10" departSpeed="0.00" departDelay="0.46" arrival="99.50" arrivalLane="1_4_1" arrivalPos="186.40" arrivalSpeed="12.70" duration="44.50" routeLength="379.93" waitingTime="5.50" waitingCount="1" stopTime="0.00" timeLoss="13.77" rerouteNo="0" devices="tripinfo_SE.1 routing_SE.1" vType="DEFAULT_VEHTYPE" speedFactor="1.13" vaporized=""/>
    <tripinfo id="WE.1" depart="50.00" departLane="2_1_1" departPos="5.10" departSpeed="0.00" departDelay="0.00" arrival="102.00" arrivalLane="1_4_1" arrivalPos="186.40" arrivalSpeed="13.00" duration="52.00" routeLength="395.13" waitingTime="11.00" waitingCount="2" stopTime="0.00" timeLoss="21.80" rerouteNo="0" devices="tripinfo_WE.1 routing_WE.1" vType="DEFAULT_VEHTYPE" speedFactor="1.18" vaporized=""/>
    <tripinfo id="WS.1" depart="67.00" departLane="2_1_1" departPos="5.10" departSpeed="0.00" departDelay="0.33" arrival="118.50" arrivalLane="1_3_1" arrivalPos="189.60" arrivalSpeed="9.71" duration="51.50" routeLength="385.10" waitingTime="6.00" waitingCount="1" stopTime="0.00" timeLoss="10.82" rerouteNo="0" devices="tripinfo_WS.1 routing_WS.1" vType="DEFAULT_VEHTYPE" speedFactor="0.87" vaporized=""/>
    <tripinfo id="NS.4" depart="75.00" departLane="5_1_2" departPos="5.10" departSpeed="0.00" departDelay="0.00" arrival="121.00" arrivalLane="1_3_1" arrivalPos="189.60" arrivalSpeed="9.24" duration="46.00" routeLength="395.22" waitingTime="0.00" waitingCount="0" stopTime="0.00" timeLoss="2.83" rerouteNo="0" devices="tripinfo_NS.4 routing_NS.4" vType="DEFAULT_VEHTYPE" speedFactor="0.82" vaporized=""/>
    <tripinfo id="SN.3" depart="82.00" departLane="3_1_1" departPos="5.10" departSpeed="0.00" departDelay="0.18" arrival="123.00" arrivalLane="1_5_1" arrivalPos="189.60" arrivalSpeed="9.90" duration="41.00" routeLength="395.22" waitingTime="0.00" waitingCount="0" stopTime="0.00" timeLoss="3.32" rerouteNo="0" devices="tripinfo_SN.3 routing_SN.3" vType="DEFAULT_VEHTYPE" speedFactor="0.94" vaporized=""/>
    <personinfo id="person_NS_e.0" depart="5.50" type="DEFAULT_PEDTYPE" speedFactor="1.25" duration="140.00" waitingTime="0.00" timeLoss="13.57" traveltime="140.00">
        <walk depart="5.50" departPos="100.00" arrival="145.50" arrivalPos="94.80" duration="140.00" routeLength="219.53" timeLoss="13.57" maxSpeed="1.74"/>
    </personinfo>
    <personinfo id="person_NW_diag.0" depart="4.50" type="DEFAULT_PEDTYPE" speedFactor="0.98" duration="156.50" waitingTime="0.00" timeLoss="16.83" traveltime="156.50">
        <walk depart="4.50" departPos="100.00" arrival="161.00" arrivalPos="93.20" duration="156.50" routeLength="190.90" timeLoss="16.83" maxSpeed="1.37"/>
    </personinfo>
    <personinfo id="person_SW_diag.0" depart="30.00" type="DEFAULT_PEDTYPE" speedFactor="1.30" duration="135.00" waitingTime="0.00" timeLoss="13.89" traveltime="135.00">
        <walk depart="30.00" departPos="100.00" arrival="165.00" arrivalPos="93.20" duration="135.00" routeLength="218.63" timeLoss="13.89" maxSpeed="1.81"/>
    </personinfo>
    <tripinfo id="NS.5" depart="94.00" departLane="5_1_2" departPos="5.10" departSpeed="0.00" departDelay="0.25" arrival="172.50" arrivalLane="1_3_1" arrivalPos="189.60" arrivalSpeed="11.28" duration="78.50" routeLength="395.22" waitingTime="34.00" waitingCount="1" stopTime="0.00" timeLoss="43.16" rerouteNo="0" devices="tripinfo_NS.5 routing_NS.5" vType="DEFAULT_VEHTYPE" speedFactor="1.01" vaporized=""/>
    <personinfo id="person_NW_diag.1" depart="20.50" type="DEFAULT_PEDTYPE" speedFactor="1.00" duration="153.50" waitingTime="0.00" timeLoss="15.49" traveltime="153.50">
        <walk depart="20.50" departPos="100.00" arrival="174.00" arrivalPos="93.20" duration="153.50" routeLength="190.90" timeLoss="15.49" maxSpeed="1.38"/>
    </personinfo>
    <personinfo id="person_WE_s.0" depart="2.00" type="DEFAULT_PEDTYPE" speedFactor="0.98" duration="172.00" waitingTime="0.00" timeLoss="17.50" traveltime="172.00">
        <walk depart="2.00" departPos="100.00" arrival="174.00" arrivalPos="93.20" duration="172.00" routeLength="209.26" timeLoss="17.50" maxSpeed="1.35"/>
    </personinfo>
    <tripinfo id="SN.4" depart="109.50" departLane="3_1_2" departPos="5.10" departSpeed="0.00" departDelay="0.41" arrival="174.50" arrivalLane="1_5_1" arrivalPos="189.60" arrivalSpeed="10.07" duration="65.00" routeLength="395.22" waitingTime="19.50" waitingCount="1" stopTime="0.00" timeLoss="25.47" rerouteNo="0" devices="tripinfo_SN.4 routing_SN.4" vType="DEFAULT_VEHTYPE" speedFactor="0.90" vaporized=""/>
    <tripinfo id="NS.6" depart="112.50" departLane="5_1_2" departPos="5.10" departSpeed="0.00" departDelay="0.00" arrival="174.50" arrivalLane="1_3_2" arrivalPos="189.60" arrivalSpeed="10.20" duration="62.00" routeLength="395.22" waitingTime="17.50" waitingCount="1" stopTime="0.00" timeLoss="25.01" rerouteNo="0" devices="tripinfo_NS.6 routing_NS.6" vType="DEFAULT_VEHTYPE" speedFactor="0.96" vaporized=""/>
    <tripinfo id="NS.7" depart="131.50" departLane="5_1_1" departPos="5.10" departSpeed="0.00" departDelay="0.25" arrival="176.00" arrivalLane="1_3_2" arrivalPos="189.60" arrivalSpeed="11.45" duration="44.50" routeLength="395.22" waitingTime="0.00" waitingCount="0" stopTime="0.00" timeLoss="9.92" rerouteNo="0" devices="tripinfo_NS.7 routing_NS.7" vType="DEFAULT_VEHTYPE" speedFactor="1.02" vaporized=""/>
    <tripinfo id="NW.2" depart="100.00" departLane="5_1_1" departPos="5.10" departSpeed="0.00" departDelay="0.00" arrival="176.50" arrivalLane="1_2_1" arrivalPos="186.40" arrivalSpeed="10.37" duration="76.50" routeLength="382.62" waitingTime="26.50" waitingCount="1" stopTime="0.00" timeLoss="38.77" rerouteNo="0" devices="tripinfo_NW.2 routing_NW.2" vType="DEFAULT_VEHTYPE" speedFactor="0.93" vaporized=""/>
    <personinfo id="person_SN_w.0" depart="3.00" type="DEFAULT_PEDTYPE" speedFactor="1.00" duration="177.50" waitingTime="0.00" timeLoss="20.98" traveltime="177.50">
        <walk depart="3.00" departPos="100.00" arrival="180.50" arrivalPos="94.80" duration="177.50" routeLength="217.89" timeLoss="20.98" maxSpeed="1.39"/>
    </personinfo>
    <tripinfo id="SE.2" depart="109.50" departLane="3_1_1" departPos="5.10" departSpeed="0.00" departDelay="0.41" arrival="180.50" arrivalLane="1_4_1" arrivalPos="186.40" arrivalSpeed="11.25" duration="71.00" routeLength="379.93" waitingTime="25.50" waitingCount="2" stopTime="0.00" timeLoss="36.56" rerouteNo="0" devices="tripinfo_SE.2 routing_SE.2" vType="DEFAULT_VEHTYPE" speedFactor="1.00" vaporized=""/>
    <personinfo id="person_SE_diag.0" depart="25.50" type="DEFAULT_PEDTYPE" speedFactor="0.96" duration="156.00" waitingTime="0.00" timeLoss="15.87" traveltime="156.00">
        <walk depart="25.50" departPos="100.00" arrival="181.50" arrivalPos="93.20" duration="156.00" routeLength="187.66" timeLoss="15.87" maxSpeed="1.34"/>
    </personinfo>
    <tripinfo id="WS.2" depart="133.50" departLane="2_1_1" departPos="5.10" departSpeed="0.00" departDelay="0.17" arrival="185.00" arrivalLane="1_3_1" arrivalPos="189.60" arrivalSpeed="11.31" duration="51.50" routeLength="385.10" waitingTime="3.00" waitingCount="2" stopTime="0.00" timeLoss="16.87" rerouteNo="0" devices="tripinfo_WS.2 routing_WS.2" vType="DEFAULT_VEHTYPE" speedFactor="1.01" vaporized=""/>
    <tripinfo id="WE.2" depart="100.00" departLane="2_1_1" departPos="5.10" departSpeed="0.00" departDelay="0.00" arrival="185.50" arrivalLane="1_4_1" arrivalPos="186.40" arrivalSpeed="10.47" duration="85.50" routeLength="395.13" waitingTime="40.00" waitingCount="2" stopTime="0.00" timeLoss="48.41" rerouteNo="0" devices="tripinfo_WE.2 routing_WE.2" vType="DEFAULT_VEHTYPE" speedFactor="0.95" vaporized=""/>
    <tripinfo id="WE.3" depart="150.00" departLane="2_1_1" departPos="5.10" departSpeed="0.00" departDelay="0.00" arrival="189.00" arrivalLane="1_4_1" arrivalPos="186.40" arrivalSpeed="11.00" duration="39.00" routeLength="395.13" waitingTime="0.00" waitingCount="0" stopTime="0.00" timeLoss="8.50" rerouteNo="0" devices="tripinfo_WE.3 routing_WE.3" vType="DEFAULT_VEHTYPE" speedFactor="1.17" vaporized=""/>
    <tripinfo id="EW.1" depart="150.00" departLane="4_1_2" departPos="5.10" departSpeed="0.00" departDelay="0.00" arrival="192.00" arrivalLane="1_2_1" arrivalPos="186.40" arrivalSpeed="9.97" duration="42.00" routeLength="394.90" waitingTime="0.00" waitingCount="0" stopTime="0.00" timeLoss="2.11" rerouteNo="0" devices="tripinfo_EW.1 routing_EW.1" vType="DEFAULT_VEHTYPE" speedFactor="0.89" vaporized=""/>
    <personinfo id="person_EW_n.1" depart="17.50" type="DEFAULT_PEDTYPE" speedFactor="1.09" duration="175.00" waitingTime="0.00" timeLoss="36.04" traveltime="175.00">
        <walk depart="17.50" departPos="100.00" arrival="192.50" arrivalPos="93.20" duration="175.00" routeLength="210.56" timeLoss="36.04" maxSpeed="1.52"/>
    </personinfo>
    <personinfo id="person_WE_s.2" depart="51.50" type="DEFAULT_PEDTYPE" speedFactor="1.20" duration="141.00" waitingTime="0.00" timeLoss="15.49" traveltime="141.00">
        <walk depart="51.50" departPos="100.00" arrival="192.50" arrivalPos="93.20" duration="141.00" routeLength="209.26" timeLoss="15.49" maxSpeed="1.67"/>
    </personinfo>
    <tripinfo id="EN.1" depart="150.00" departLane="4_1_1" departPos="5.10" departSpeed="0.00" departDelay="0.00" arrival="192.50" arrivalLane="1_5_1" arrivalPos="189.60" arrivalSpeed="11.00" duration="42.50" routeLength="382.62" waitingTime="1.50" waitingCount="1" stopTime="0.00" timeLoss="12.80" rerouteNo="0" devices="tripinfo_EN.1 routing_EN.1" vType="DEFAULT_VEHTYPE" speedFactor="1.18" vaporized=""/>
    <personinfo id="person_WE_n.1" depart="31.50" type="DEFAULT_PEDTYPE" speedFactor="1.12" duration="162.00" waitingTime="0.00" timeLoss="17.81" traveltime="162.00">
        <walk depart="31.50" departPos="100.00" arrival="193.50" arrivalPos="93.20" duration="162.00" routeLength="224.16" timeLoss="17.81" maxSpeed="1.55"/>
    </personinfo>
    <personinfo id="person_SE_diag.1" depart="44.00" type="DEFAULT_PEDTYPE" speedFactor="1.00" duration="151.00" waitingTime="0.00" timeLoss="15.37" traveltime="151.00">
        <walk depart="44.00" departPos="100.00" arrival="195.00" arrivalPos="93.20" duration="151.00" routeLength="187.66" timeLoss="15.37" maxSpeed="1.38"/>
    </personinfo>
    <tripinfo id="NE.1" depart="150.00" departLane="5_1_3" departPos="5.10" departSpeed="0.00" departDelay="0.00" arrival="197.00" arrivalLane="1_4_2" arrivalPos="186.40" arrivalSpeed="13.00" duration="47.00" routeLength="392.89" waitingTime="6.50" waitingCount="1" stopTime="0.00" timeLoss="16.24" rerouteNo="0" devices="tripinfo_NE.1 routing_NE.1" vType="DEFAULT_VEHTYPE" speedFactor="1.16" vaporized=""/>
    <personinfo id="person_NW_diag.2" depart="32.00" type="DEFAULT_PEDTYPE" speedFactor="0.92" duration="167.00" waitingTime="0.00" timeLoss="18.00" traveltime="167.00">
        <walk depart="32.00" departPos="100.00" arrival="199.00" arrivalPos="93.20" duration="167.00" routeLength="190.90" timeLoss="18.00" maxSpeed="1.28"/>
    </personinfo>
    <personinfo id="person_WE_s.1" depart="43.50" type="DEFAULT_PEDTYPE" speedFactor="1.08" duration="155.50" waitingTime="0.00" timeLoss="16.34" traveltime="155.50">
        <walk depart="43.50" departPos="100.00" arrival="199.00" arrivalPos="93.20" duration="155.50" routeLength="209.26" timeLoss="16.34" maxSpeed="1.50"/>
    </personinfo>
    <personinfo id="person_WE_n.0" depart="10.00" type="DEFAULT_PEDTYPE" speedFactor="1.00" duration="190.00" waitingTime="0.00" timeLoss="28.12" traveltime="190.00">
        <walk depart="10.00" departPos="100.00" arrival="200.00" arrivalPos="93.20" duration="190.00" routeLength="224.16" timeLoss="28.12" maxSpeed="1.38"/>
    </personinfo>
    <tripinfo id="NW.3" depart="153.00" departLane="5_1_1" departPos="5.10" departSpeed="0.00" departDelay="3.00" arrival="200.00" arrivalLane="1_2_1" arrivalPos="186.40" arrivalSpeed="10.80" duration="47.00" routeLength="382.62" waitingTime="1.00" waitingCount="2" stopTime="0.00" timeLoss="10.98" rerouteNo="0" devices="tripinfo_NW.3 routing_NW.3" vType="DEFAULT_VEHTYPE" speedFactor="0.96" vaporized=""/>
    <personinfo id="person_NW_diag.3" depart="56.00" type="DEFAULT_PEDTYPE" speedFactor="1.06" duration="144.50" waitingTime="0.00" timeLoss="15.37" traveltime="144.50">
        <walk depart="56.00" departPos="100.00" arrival="200.50" arrivalPos="93.20" duration="144.50" routeLength="190.90" timeLoss="15.37" maxSpeed="1.48"/>
    </personinfo>
    <personinfo id="person_NS_e.2" depart="45.50" type="DEFAULT_PEDTYPE" speedFactor="1.13" duration="156.50" waitingTime="0.00" timeLoss="16.31" traveltime="156.50">
        <walk depart="45.50" departPos="100.00" arrival="202.00" arrivalPos="94.80" duration="156.50" routeLength="219.53" timeLoss="16.31" maxSpeed="1.57"/>
    </personinfo>
    <tripinfo id="NS.8" depart="150.00" departLane="5_1_1" departPos="5.10" departSpeed="0.00" departDelay="0.00" arrival="202.50" arrivalLane="1_3_1" arrivalPos="189.60" arrivalSpeed="11.45" duration="52.50" routeLength="395.22" waitingTime="8.00" waitingCount="2" stopTime="0.00" timeLoss="17.89" rerouteNo="0" devices="tripinfo_NS.8 routing_NS.8" vType="DEFAULT_VEHTYPE" speedFactor="1.02" vaporized=""/>
    <personinfo id="person_NE_diag.1" depart="28.50" type="DEFAULT_PEDTYPE" speedFactor="1.02" duration="175.00" waitingTime="0.00" timeLoss="19.28" traveltime="175.00">
        <walk depart="28.50" departPos="100.00" arrival="203.50" arrivalPos="93.20" duration="175.00" routeLength="221.14" timeLoss="19.28" maxSpeed="1.42"/>
    </personinfo>
    <personinfo id="person_EW_n.0" depart="14.50" type="DEFAULT_PEDTYPE" speedFactor="0.95" duration="190.00" waitingTime="0.00" timeLoss="30.59" traveltime="190.00">
        <walk depart="14.50" departPos="100.00" arrival="204.50" arrivalPos="93.20" duration="190.00" routeLength="210.56" timeLoss="30.59" maxSpeed="1.32"/>
    </personinfo>
    <personinfo id="person_NW_diag.4" depart="67.00" type="DEFAULT_PEDTYPE" speedFactor="1.09" duration="139.50" waitingTime="0.00" timeLoss="13.63" traveltime="139.50">
        <walk depart="67.00" departPos="100.00" arrival="206.50" arrivalPos="93.20" duration="139.50" routeLength="190.90" timeLoss="13.63" maxSpeed="1.52"/>
    </personinfo>
    <personinfo id="person_SN_e.0" depart="43.00" type="DEFAULT_PEDTYPE" speedFactor="1.03" duration="163.50" waitingTime="0.00" timeLoss="17.31" traveltime="163.50">
        <walk depart="43.00" departPos="100.00" arrival="206.50" arrivalPos="94.80" duration="163.50" routeLength="209.13" timeLoss="17.31" maxSpeed="1.43"/>
    </personinfo>
    <tripinfo id="SN.5" depart="136.50" departLane="3_1_1" departPos="5.10" departSpeed="0.00" departDelay="0.14" arrival="207.50" arrivalLane="1_5_1" arrivalPos="189.60" arrivalSpeed="10.47" duration="71.00" routeLength="395.22" waitingTime="28.50" waitingCount="1" stopTime="0.00" timeLoss="33.24" rerouteNo="0" devices="tripinfo_SN.5 routing_SN.5" vType="DEFAULT_VEHTYPE" speedFactor="0.93" vaporized=""/>
    <tripinfo id="NS.9" depart="169.00" departLane="5_1_2" departPos="5.10" departSpeed="0.00" departDelay="0.25" arrival="208.00" arrivalLane="1_3_1" arrivalPos="189.60" arrivalSpeed="11.19" duration="39.00" routeLength="395.22" waitingTime="0.00" waitingCount="0" stopTime="0.00" timeLoss="3.63" rerouteNo="0" devices="tripinfo_NS.9 routing_NS.9" vType="DEFAULT_VEHTYPE" speedFactor="1.00" vaporized=""/>
    <tripinfo id="SN.6" depart="164.00" departLane="3_1_2" departPos="5.10" departSpeed="0.00" departDelay="0.36" arrival="209.00" arrivalLane="1_5_1" arrivalPos="189.60" arrivalSpeed="9.67" duration="45.00" routeLength="395.22" waitingTime="0.00" waitingCount="0" stopTime="0.00" timeLoss="3.73" rerouteNo="0" devices="tripinfo_SN.6 routing_SN.6" vType="DEFAULT_VEHTYPE" speedFactor="0.86" vaporized=""/>
    <personinfo id="person_NE_diag.0" depart="11.50" type="DEFAULT_PEDTYPE" speedFactor="0.89" duration="198.50" waitingTime="0.00" timeLoss="20.23" traveltime="198.50">
        <walk depart="11.50" departPos="100.00" arrival="210.00" arrivalPos="93.20" duration="198.50" routeLength="220.38" timeLoss="20.23" maxSpeed="1.24"/>
    </personinfo>
    <personinfo id="person_WE_n.2" depart="31.50" type="DEFAULT_PEDTYPE" speedFactor="1.00" duration="181.00" waitingTime="0.00" timeLoss="19.27" traveltime="181.00">
        <walk depart="31.50" departPos="100.00" arrival="212.50" arrivalPos="93.20" duration="181.00" routeLength="224.16" timeLoss="19.27" maxSpeed="1.39"/>
    </personinfo>
    <personinfo id="person_EW_n.2" depart="18.00" type="DEFAULT_PEDTYPE" speedFactor="0.86" duration="197.50" waitingTime="0.00" timeLoss="21.38" traveltime="197.50">
        <walk depart="18.00" departPos="100.00" arrival="215.50" arrivalPos="93.20" duration="197.50" routeLength="210.56" timeLoss="21.38" maxSpeed="1.20"/>
    </personinfo>
    <personinfo id="person_WE_n.3" depart="37.00" type="DEFAULT_PEDTYPE" speedFactor="0.99" duration="182.50" waitingTime="0.00" timeLoss="18.98" traveltime="182.50">
        <walk depart="37.00" departPos="100.00" arrival="219.50" arrivalPos="93.20" duration="182.50" routeLength="224.16" timeLoss="18.98" maxSpeed="1.37"/>
    </personinfo>
    <personinfo id="person_NS_e.1" depart="28.50" type="DEFAULT_PEDTYPE" speedFactor="0.91" duration="192.00" waitingTime="0.00" timeLoss="19.14" traveltime="192.00">
        <walk depart="28.50" departPos="100.00" arrival="220.50" arrivalPos="94.80" duration="192.00" routeLength="219.53" timeLoss="19.14" maxSpeed="1.27"/>
    </personinfo>
    <personinfo id="person_WE_s.3" depart="62.00" type="DEFAULT_PEDTYPE" speedFactor="1.05" duration="160.00" waitingTime="0.00" timeLoss="15.93" traveltime="160.00">
        <walk depart="62.00" departPos="100.00" arrival="222.00" arrivalPos="93.20" duration="160.00" routeLength="209.26" timeLoss="15.93" maxSpeed="1.45"/>
    </personinfo>
    <personinfo id="person_NW_diag.5" depart="88.00" type="DEFAULT_PEDTYPE" speedFactor="1.11" duration="138.50" waitingTime="0.00" timeLoss="14.64" traveltime="138.50">
        <walk depart="88.00" departPos="100.00" arrival="226.50" arrivalPos="93.20" duration="138.50" routeLength="190.90" timeLoss="14.64" maxSpeed="1.54"/>
    </personinfo>
    <tripinfo id="SE.3" depart="164.00" departLane="3_1_1" departPos="5.10" departSpeed="0.00" departDelay="0.37" arrival="227.00" arrivalLane="1_4_1" arrivalPos="186.40" arrivalSpeed="12.39" duration="63.00" routeLength="379.93" waitingTime="19.00" waitingCount="1" stopTime="0.00" timeLoss="31.33" rerouteNo="0" devices="tripinfo_SE.3 routing_SE.3" vType="DEFAULT_VEHTYPE" speedFactor="1.11" vaporized=""/>
    <personinfo id="person_EW_n.3" depart="50.50" type="DEFAULT_PEDTYPE" speedFactor="0.91" duration="186.50" waitingTime="0.00" timeLoss="19.26" traveltime="186.50">
        <walk depart="50.50" departPos="100.00" arrival="237.00" arrivalPos="93.20" duration="186.50" routeLength="210.56" timeLoss="19.26" maxSpeed="1.26"/>
    </personinfo>
    <personinfo id="person_SN_w.1" depart="52.50" type="DEFAULT_PEDTYPE" speedFactor="1.00" duration="186.00" waitingTime="0.00" timeLoss="29.56" traveltime="186.00">
        <walk depart="52.50" departPos="100.00" arrival="238.50" arrivalPos="94.80" duration="186.00" routeLength="217.89" timeLoss="29.56" maxSpeed="1.39"/>
    </personinfo>
    <personinfo id="person_EW_n.4" depart="85.50" type="DEFAULT_PEDTYPE" speedFactor="1.14" duration="156.00" waitingTime="0.00" timeLoss="23.26" traveltime="156.00">
        <walk depart="85.50" departPos="100.00" arrival="241.50" arrivalPos="93.20" duration="156.00" routeLength="210.56" timeLoss="23.26" maxSpeed="1.59"/>
    </personinfo>
    <personinfo id="person_NW_diag.7" depart="94.00" type="DEFAULT_PEDTYPE" speedFactor="1.04" duration="147.50" waitingTime="0.00" timeLoss="15.41" traveltime="147.50">
        <walk depart="94.00" departPos="100.00" arrival="241.50" arrivalPos="93.20" duration="147.50" routeLength="190.90" timeLoss="15.41" maxSpeed="1.45"/>
    </personinfo>
    <personinfo id="person_NS_e.3" depart="58.50" type="DEFAULT_PEDTYPE" speedFactor="0.98" duration="183.50" waitingTime="0.00" timeLoss="22.84" traveltime="183.50">
        <walk depart="58.50" departPos="100.00" arrival="242.00" arrivalPos="94.80" duration="183.50" routeLength="219.53" timeLoss="22.84" maxSpeed="1.37"/>
    </personinfo>
    <personinfo id="person_NW_diag.9" depart="107.50" type="DEFAULT_PEDTYPE" speedFactor="1.15" duration="136.00" waitingTime="0.00" timeLoss="16.68" traveltime="136.00">
        <walk depart="107.50" departPos="100.00" arrival="243.50" arrivalPos="93.20" duration="136.00" routeLength="190.90" timeLoss="16.68" maxSpeed="1.60"/>
    </personinfo>
    <personinfo id="person_EW_n.5" depart="91.00" type="DEFAULT_PEDTYPE" speedFactor="1.10" duration="154.50" waitingTime="0.00" timeLoss="16.33" traveltime="154.50">
        <walk depart="91.00" departPos="100.00" arrival="245.50" arrivalPos="93.20" duration="154.50" routeLength="210.56" timeLoss="16.33" maxSpeed="1.52"/>