<?xml version="1.0" encoding="UTF-8"?>

<!-- generated on 2025-03-17 18:53:44 by Eclipse SUMO GUI Version 1.22.0
<sumoConfiguration xmlns:xsi="http://www.w3.org/2001/XMLSchema-instance" xsi:noNamespaceSchemaLocation="http://sumo.dlr.de/xsd/sumoConfiguration.xsd">

    <input>
        <net-file value="C:\Users\chris\PycharmProjects\UW_CET593_project2\environment/network_model/UW_intersection_pedestrian_X.net.xml"/>
        <route-files value="C:\Users\chris\PycharmProjects\UW_CET593_project2\environment/network_model/UW_IntersectionDecreaseDemand.rou.xml"/>
        <additional-files value="C:\Users\chris\PycharmProjects\UW_CET593_project2\environment/network_model/UW_intersection_Exclusive.add.xml"/>
    </input>

    <output>
        <queue-output value="C:\Users\chris\PycharmProjects\UW_CET593_project2\environment/simulation_data/UW_intersection/queues_multi_scale_symmetric_pene_20.xml"/>
        <tripinfo-output value="C:\Users\chris\PycharmProjects\UW_CET593_project2\environment/simulation_data/UW_intersection/tripinfo_multi_scale_symmetric_pene_20.xml"/>
    </output>

    <time>
        <begin value="0"/>
        <step-length value="0.5"/>
    </time>

    <processing>
        <waiting-time-memory value="1000"/>
    </processing>

    <report>
        <verbose value="true"/>
        <no-step-log value="true"/>
    </report>

    <traci_server>
        <remote-port value="54972"/>
    </traci_server>

    <gui_only>
        <start value="true"/>
    </gui_only>

</sumoConfiguration>
-->

<tripinfos xmlns:xsi="http://www.w3.org/2001/XMLSchema-instance" xsi:noNamespaceSchemaLocation="http://sumo.dlr.de/xsd/tripinfo_file.xsd">
    <tripinfo id="NS.0" depart="0.00" departLane="5_1_1" departPos="5.10" departSpeed="0.00" departDelay="0.00" arrival="35.50" arrivalLane="1_3_1" arrivalPos="189.60" arrivalSpeed="12.12" duration="35.50" routeLength="395.22" waitingTime="0.00" waitingCount="0" stopTime="0.00" timeLoss="3.63" rerouteNo="0" devices="tripinfo_NS.0 routing_NS.0" vType="DEFAULT_VEHTYPE" speedFactor="1.11" vaporized=""/>
    <tripinfo id="NE.0" depart="0.00" departLane="5_1_3" departPos="5.10" departSpeed="0.00" departDelay="0.00" arrival="36.50" arrivalLane="1_4_2" arrivalPos="186.40" arrivalSpeed="13.00" duration="36.50" routeLength="392.89" waitingTime="0.00" waitingCount="0" stopTime="0.00" timeLoss="7.79" rerouteNo="0" devices="tripinfo_NE.0 routing_NE.0" vType="DEFAULT_VEHTYPE" speedFactor="1.24" vaporized=""/>
    <tripinfo id="EN.0" depart="0.00" departLane="4_1_1" departPos="5.10" departSpeed="0.00" departDelay="0.00" arrival="37.50" arrivalLane="1_5_1" arrivalPos="189.60" arrivalSpeed="11.91" duration="37.50" routeLength="382.62" waitingTime="0.00" waitingCount="0" stopTime="0.00" timeLoss="4.78" rerouteNo="0" devices="tripinfo_EN.0 routing_EN.0" vType="DEFAULT_VEHTYPE" speedFactor="1.06" vaporized=""/>
    <tripinfo id="NW.0" depart="3.00" departLane="5_1_1" departPos="5.10" departSpeed="0.00" departDelay="3.00" arrival="39.50" arrivalLane="1_2_1" arrivalPos="186.40" arrivalSpeed="11.97" duration="36.50" routeLength="382.62" waitingTime="0.00" waitingCount="0" stopTime="0.00" timeLoss="4.63" rerouteNo="0" devices="tripinfo_NW.0 routing_NW.0" vType="DEFAULT_VEHTYPE" speedFactor="1.09" vaporized=""/>
    <tripinfo id="WE.0" depart="0.00" departLane="2_1_1" departPos="5.10" departSpeed="0.00" departDelay="0.00" arrival="47.50" arrivalLane="1_4_1" arrivalPos="186.40" arrivalSpeed="10.86" duration="47.50" routeLength="395.13" waitingTime="5.00" waitingCount="1" stopTime="0.00" timeLoss="10.75" rerouteNo="0" devices="tripinfo_WE.0 routing_WE.0" vType="DEFAULT_VEHTYPE" speedFactor="0.97" vaporized=""/>
    <tripinfo id="WN.0" depart="2.50" departLane="2_1_1" departPos="5.10" departSpeed="0.00" departDelay="2.50" arrival="48.50" arrivalLane="1_5_2" arrivalPos="189.60" arrivalSpeed="12.88" duration="46.00" routeLength="392.90" waitingTime="2.00" waitingCount="1" stopTime="0.00" timeLoss="15.28" rerouteNo="0" devices="tripinfo_WN.0 routing_WN.0" vType="DEFAULT_VEHTYPE" speedFactor="1.15" vaporized=""/>
    <tripinfo id="ES.0" depart="0.00" departLane="4_1_2" departPos="5.10" departSpeed="0.00" departDelay="0.00" arrival="51.00" arrivalLane="1_3_2" arrivalPos="189.60" arrivalSpeed="10.92" duration="51.00" routeLength="392.89" waitingTime="5.50" waitingCount="2" stopTime="0.00" timeLoss="16.12" rerouteNo="0" devices="tripinfo_ES.0 routing_ES.0" vType="DEFAULT_VEHTYPE" speedFactor="1.02" vaporized=""/>
    <tripinfo id="EW.0" depart="3.00" departLane="4_1_2" departPos="5.10" departSpeed="0.00" departDelay="3.00" arrival="53.00" arrivalLane="1_2_1" arrivalPos="186.40" arrivalSpeed="10.85" duration="50.00" routeLength="394.90" waitingTime="1.50" waitingCount="1" stopTime="0.00" timeLoss="13.15" rerouteNo="0" devices="tripinfo_EW.0 routing_EW.0" vType="DEFAULT_VEHTYPE" speedFactor="0.97" vaporized=""/>
    <tripinfo id="WS.0" depart="5.00" departLane="2_1_1" departPos="5.10" departSpeed="0.00" departDelay="5.00" arrival="53.00" arrivalLane="1_3_1" arrivalPos="189.60" arrivalSpeed="9.80" duration="48.00" routeLength="385.10" waitingTime="0.00" waitingCount="0" stopTime="0.00" timeLoss="9.62" rerouteNo="0" devices="tripinfo_WS.0 routing_WS.0" vType="DEFAULT_VEHTYPE" speedFactor="0.91" vaporized=""/>
    <tripinfo id="SW.0" depart="0.00" departLane="3_1_3" departPos="5.10" departSpeed="0.00" departDelay="0.00" arrival="58.00" arrivalLane="1_2_1" arrivalPos="186.40" arrivalSpeed="12.78" duration="58.00" routeLength="392.89" waitingTime="18.00" waitingCount="1" stopTime="0.00" timeLoss="26.86" rerouteNo="0" devices="tripinfo_SW.0 routing_SW.0" vType="DEFAULT_VEHTYPE" speedFactor="1.14" vaporized=""/>
    <tripinfo id="SE.0" depart="0.00" departLane="3_1_1" departPos="5.10" departSpeed="0.00" departDelay="0.00" arrival="58.50" arrivalLane="1_4_1" arrivalPos="186.40" arrivalSpeed="11.14" duration="58.50" routeLength="379.93" waitingTime="18.00" waitingCount="1" stopTime="0.00" timeLoss="23.56" rerouteNo="0" devices="tripinfo_SE.0 routing_SE.0" vType="DEFAULT_VEHTYPE" speedFactor="0.99" vaporized=""/>
    <tripinfo id="SN.0" depart="0.00" departLane="3_1_2" departPos="5.10" departSpeed="0.00" departDelay="0.00" arrival="60.00" arrivalLane="1_5_2" arrivalPos="189.60" arrivalSpeed="11.30" duration="60.00" routeLength="395.22" waitingTime="18.50" waitingCount="1" stopTime="0.00" timeLoss="25.69" rerouteNo="0" devices="tripinfo_SN.0 routing_SN.0" vType="DEFAULT_VEHTYPE" speedFactor="1.04" vaporized=""/>
    <tripinfo id="NS.1" depart="23.50" departLane="5_1_1" departPos="5.10" departSpeed="0.00" departDelay="0.06" arrival="63.50" arrivalLane="1_3_1" arrivalPos="189.60" arrivalSpeed="10.73" duration="40.00" routeLength="395.22" waitingTime="0.00" waitingCount="0" stopTime="0.00" timeLoss="2.89" rerouteNo="0" devices="tripinfo_NS.1 routing_NS.1" vType="DEFAULT_VEHTYPE" speedFactor="0.96" vaporized=""/>
    <tripinfo id="SN.1" depart="34.50" departLane="3_1_1" departPos="5.10" departSpeed="0.00" departDelay="0.41" arrival="75.50" arrivalLane="1_5_1" arrivalPos="189.60" arrivalSpeed="11.57" duration="41.00" routeLength="395.22" waitingTime="0.00" waitingCount="0" stopTime="0.00" timeLoss="6.67" rerouteNo="0" devices="tripinfo_SN.1 routing_SN.1" vType="DEFAULT_VEHTYPE" speedFactor="1.04" vaporized=""/>
    <tripinfo id="NS.2" depart="47.00" departLane="5_1_1" departPos="5.10" departSpeed="0.00" departDelay="0.12" arrival="90.50" arrivalLane="1_3_1" arrivalPos="189.60" arrivalSpeed="9.66" duration="43.50" routeLength="395.22" waitingTime="0.00" waitingCount="0" stopTime="0.00" timeLoss="3.40" rerouteNo="0" devices="tripinfo_NS.2 routing_NS.2" vType="DEFAULT_VEHTYPE" speedFactor="0.88" vaporized=""/>
    <tripinfo id="NW.1" depart="62.50" departLane="5_1_1" departPos="5.10" departSpeed="0.00" departDelay="0.00" arrival="99.00" arrivalLane="1_2_1" arrivalPos="186.40" arrivalSpeed="12.27" duration="36.50" routeLength="382.62" waitingTime="0.00" waitingCount="0" stopTime="0.00" timeLoss="4.68" rerouteNo="0" devices="tripinfo_NW.1 routing_NW.1" vType="DEFAULT_VEHTYPE" speedFactor="1.10" vaporized=""/>
    <tripinfo id="SN.2" depart="68.50" departLane="3_1_2" departPos="5.10" departSpeed="0.00" departDelay="0.32" arrival="107.00" arrivalLane="1_5_1" arrivalPos="189.60" arrivalSpeed="10.77" duration="38.50" routeLength="395.22" waitingTime="0.00" waitingCount="0" stopTime="0.00" timeLoss="3.50" rerouteNo="0" devices="tripinfo_SN.2 routing_SN.2" vType="DEFAULT_VEHTYPE" speedFactor="1.01" vaporized=""/>
    <tripinfo id="SE.1" depart="68.50" departLane="3_1_1" departPos="5.10" departSpeed="0.00" departDelay="0.32" arrival="109.00" arrivalLane="1_4_1" arrivalPos="186.40" arrivalSpeed="10.19" duration="40.50" routeLength="379.93" waitingTime="0.00" waitingCount="0" stopTime="0.00" timeLoss="4.07" rerouteNo="0" devices="tripinfo_SE.1 routing_SE.1" vType="DEFAULT_VEHTYPE" speedFactor="0.95" vaporized=""/>
    <tripinfo id="NS.3" depart="70.50" departLane="5_1_2" departPos="5.10" departSpeed="0.00" departDelay="0.19" arrival="110.50" arrivalLane="1_3_1" arrivalPos="189.60" arrivalSpeed="10.82" duration="40.00" routeLength="395.22" waitingTime="0.00" waitingCount="0" stopTime="0.00" timeLoss="3.58" rerouteNo="0" devices="tripinfo_NS.3 routing_NS.3" vType="DEFAULT_VEHTYPE" speedFactor="0.97" vaporized=""/>
    <tripinfo id="NS.4" depart="94.00" departLane="5_1_1" departPos="5.10" departSpeed="0.00" departDelay="0.25" arrival="132.50" arrivalLane="1_3_1" arrivalPos="189.60" arrivalSpeed="11.15" duration="38.50" routeLength="395.22" waitingTime="0.00" waitingCount="0" stopTime="0.00" timeLoss="3.67" rerouteNo="0" devices="tripinfo_NS.4 routing_NS.4" vType="DEFAULT_VEHTYPE" speedFactor="1.02" vaporized=""/>
    <tripinfo id="SN.3" depart="102.50" departLane="3_1_1" departPos="5.10" departSpeed="0.00" departDelay="0.23" arrival="141.00" arrivalLane="1_5_1" arrivalPos="189.60" arrivalSpeed="10.90" duration="38.50" routeLength="395.22" waitingTime="0.00" waitingCount="0" stopTime="0.00" timeLoss="3.38" rerouteNo="0" devices="tripinfo_SN.3 routing_SN.3" vType="DEFAULT_VEHTYPE" speedFactor="1.01" vaporized=""/>
    <tripinfo id="NS.5" depart="117.50" departLane="5_1_1" departPos="5.10" departSpeed="0.00" departDelay="0.31" arrival="157.50" arrivalLane="1_3_1" arrivalPos="189.60" arrivalSpeed="10.36" duration="40.00" routeLength="395.22" waitingTime="0.00" waitingCount="0" stopTime="0.00" timeLoss="3.31" rerouteNo="0" devices="tripinfo_NS.5 routing_NS.5" vType="DEFAULT_VEHTYPE" speedFactor="0.97" vaporized=""/>
    <tripinfo id="NW.2" depart="125.00" departLane="5_1_1" departPos="5.10" departSpeed="0.00" departDelay="0.00" arrival="163.50" arrivalLane="1_2_1" arrivalPos="186.40" arrivalSpeed="11.22" duration="38.50" routeLength="382.62" waitingTime="0.00" waitingCount="0" stopTime="0.00" timeLoss="4.88" rerouteNo="0" devices="tripinfo_NW.2 routing_NW.2" vType="DEFAULT_VEHTYPE" speedFactor="1.04" vaporized=""/>
    <personinfo id="person_SE_diag.0" depart="2.00" type="DEFAULT_PEDTYPE" speedFactor="0.90" duration="166.50" waitingTime="0.00" timeLoss="16.62" traveltime="166.50">
        <walk depart="2.00" departPos="100.00" arrival="168.50" arrivalPos="93.20" duration="166.50" routeLength="187.66" timeLoss="16.62" maxSpeed="1.25"/>
    </personinfo>
    <tripinfo id="SE.2" depart="136.50" departLane="3_1_1" departPos="5.10" departSpeed="0.00" departDelay="0.14" arrival="172.50" arrivalLane="1_4_1" arrivalPos="186.40" arrivalSpeed="12.27" duration="36.00" routeLength="379.93" waitingTime="0.00" waitingCount="0" stopTime="0.00" timeLoss="4.89" rerouteNo="0" devices="tripinfo_SE.2 routing_SE.2" vType="DEFAULT_VEHTYPE" speedFactor="1.11" vaporized=""/>
    <tripinfo id="SN.4" depart="136.50" departLane="3_1_2" departPos="5.10" departSpeed="0.00" departDelay="0.14" arrival="177.00" arrivalLane="1_5_1" arrivalPos="189.60" arrivalSpeed="10.44" duration="40.50" routeLength="395.22" waitingTime="0.00" waitingCount="0" stopTime="0.00" timeLoss="2.25" rerouteNo="0" devices="tripinfo_SN.4 routing_SN.4" vType="DEFAULT_VEHTYPE" speedFactor="0.93" vaporized=""/>
    <tripinfo id="WE.1" depart="62.50" departLane="2_1_1" departPos="5.10" departSpeed="0.00" departDelay="0.00" arrival="183.00" arrivalLane="1_4_1" arrivalPos="186.40" arrivalSpeed="12.40" duration="120.50" routeLength="395.13" waitingTime="81.00" waitingCount="1" stopTime="0.00" timeLoss="88.91" rerouteNo="0" devices="tripinfo_WE.1 routing_WE.1" vType="DEFAULT_VEHTYPE" speedFactor="1.13" vaporized=""/>
    <personinfo id="person_NS_e.0" depart="12.50" type="DEFAULT_PEDTYPE" speedFactor="0.96" duration="183.00" waitingTime="0.00" timeLoss="17.61" traveltime="183.00">
        <walk depart="12.50" departPos="100.00" arrival="195.50" arrivalPos="94.80" duration="183.00" routeLength="219.53" timeLoss="17.61" maxSpeed="1.33"/>
    </personinfo>
    <tripinfo id="WS.1" depart="83.50" departLane="2_1_1" departPos="5.10" departSpeed="0.00" departDelay="0.17" arrival="196.50" arrivalLane="1_3_1" arrivalPos="189.60" arrivalSpeed="11.02" duration="113.00" routeLength="385.10" waitingTime="64.50" waitingCount="2" stopTime="0.00" timeLoss="77.62" rerouteNo="0" devices="tripinfo_WS.1 routing_WS.1" vType="DEFAULT_VEHTYPE" speedFactor="0.99" vaporized=""/>
    <tripinfo id="NS.7" depart="164.50" departLane="5_1_2" departPos="5.10" departSpeed="0.00" departDelay="0.43" arrival="204.00" arrivalLane="1_3_2" arrivalPos="189.60" arrivalSpeed="10.99" duration="39.50" routeLength="395.22" waitingTime="0.00" waitingCount="0" stopTime="0.00" timeLoss="3.62" rerouteNo="0" devices="tripinfo_NS.7 routing_NS.7" vType="DEFAULT_VEHTYPE" speedFactor="0.99" vaporized=""/>
    <tripinfo id="NS.6" depart="141.00" departLane="5_1_2" departPos="5.10" departSpeed="0.00" departDelay="0.37" arrival="204.50" arrivalLane="1_3_1" arrivalPos="189.60" arrivalSpeed="9.83" duration="63.50" routeLength="395.22" waitingTime="16.00" waitingCount="1" stopTime="0.00" timeLoss="22.99" rerouteNo="0" devices="tripinfo_NS.6 routing_NS.6" vType="DEFAULT_VEHTYPE" speedFactor="0.88" vaporized=""/>
    <tripinfo id="WE.2" depart="125.00" departLane="2_1_1" departPos="5.10" departSpeed="0.00" departDelay="0.00" arrival="214.00" arrivalLane="1_4_1" arrivalPos="186.40" arrivalSpeed="12.18" duration="89.00" routeLength="395.13" waitingTime="37.00" waitingCount="3" stopTime="0.00" timeLoss="57.72" rerouteNo="0" devices="tripinfo_WE.2 routing_WE.2" vType="DEFAULT_VEHTYPE" speedFactor="1.14" vaporized=""/>
    <personinfo id="person_SE_diag.1" depart="66.50" type="DEFAULT_PEDTYPE" speedFactor="1.00" duration="150.50" waitingTime="0.00" timeLoss="15.23" traveltime="150.50">
        <walk depart="66.50" departPos="100.00" arrival="217.00" arrivalPos="93.20" duration="150.50" routeLength="187.66" timeLoss="15.23" maxSpeed="1.39"/>
    </personinfo>
    <tripinfo id="SN.5" depart="170.50" departLane="3_1_1" departPos="5.10" departSpeed="0.00" departDelay="0.05" arrival="221.50" arrivalLane="1_5_1" arrivalPos="189.60" arrivalSpeed="9.83" duration="51.00" routeLength="395.22" waitingTime="4.00" waitingCount="1" stopTime="0.00" timeLoss="10.76" rerouteNo="0" devices="tripinfo_SN.5 routing_SN.5" vType="DEFAULT_VEHTYPE" speedFactor="0.88" vaporized=""/>
    <personinfo id="person_NW_diag.0" depart="58.50" type="DEFAULT_PEDTYPE" speedFactor="0.93" duration="164.50" waitingTime="0.00" timeLoss="16.45" traveltime="164.50">
        <walk depart="58.50" departPos="100.00" arrival="223.00" arrivalPos="93.20" duration="164.50" routeLength="190.90" timeLoss="16.45" maxSpeed="1.29"/>
    </personinfo>
    <tripinfo id="WS.2" depart="167.00" departLane="2_1_1" departPos="5.10" departSpeed="0.00" departDelay="0.33" arrival="226.50" arrivalLane="1_3_1" arrivalPos="189.60" arrivalSpeed="10.94" duration="59.50" routeLength="385.10" waitingTime="16.00" waitingCount="1" stopTime="0.00" timeLoss="23.73" rerouteNo="0" devices="tripinfo_WS.2 routing_WS.2" vType="DEFAULT_VEHTYPE" speedFactor="0.98" vaporized=""/>
    <tripinfo id="EW.1" depart="187.50" departLane="4_1_2" departPos="5.10" departSpeed="0.00" departDelay="0.00" arrival="228.00" arrivalLane="1_2_1" arrivalPos="186.40" arrivalSpeed="10.55" duration="40.50" routeLength="394.90" waitingTime="0.00" waitingCount="0" stopTime="0.00" timeLoss="3.52" rerouteNo="0" devices="tripinfo_EW.1 routing_EW.1" vType="DEFAULT_VEHTYPE" speedFactor="0.96" vaporized=""/>
    <tripinfo id="WE.3" depart="187.50" departLane="2_1_1" departPos="5.10" departSpeed="0.00" departDelay="0.00" arrival="233.50" arrivalLane="1_4_1" arrivalPos="186.40" arrivalSpeed="9.21" duration="46.00" routeLength="395.13" waitingTime="0.00" waitingCount="0" stopTime="0.00" timeLoss="3.40" rerouteNo="0" devices="tripinfo_WE.3 routing_WE.3" vType="DEFAULT_VEHTYPE" speedFactor="0.84" vaporized=""/>
    <tripinfo id="NW.3" depart="187.50" departLane="5_1_1" departPos="5.10" departSpeed="0.00" departDelay="0.00" arrival="237.50" arrivalLane="1_2_1" arrivalPos="186.40" arrivalSpeed="11.02" duration="50.00" routeLength="382.62" waitingTime="8.50" waitingCount="1" stopTime="0.00" timeLoss="15.31" rerouteNo="0" devices="tripinfo_NW.3 routing_NW.3" vType="DEFAULT_VEHTYPE" speedFactor="1.01" vaporized=""/>
    <personinfo id="person_WE_s.2" depart="64.50" type="DEFAULT_PEDTYPE" speedFactor="1.20" duration="176.00" waitingTime="0.00" timeLoss="50.49" traveltime="176.00">
        <walk depart="64.50" departPos="100.00" arrival="240.50" arrivalPos="93.20" duration="176.00" routeLength="209.26" timeLoss="50.49" maxSpeed="1.67"/>
    </personinfo>
    <personinfo id="person_EW_n.0" depart="15.50" type="DEFAULT_PEDTYPE" speedFactor="1.17" duration="227.00" waitingTime="0.00" timeLoss="97.55" traveltime="227.00">
        <walk depart="15.50" departPos="100.00" arrival="242.50" arrivalPos="93.20" duration="227.00" routeLength="210.56" timeLoss="97.55" maxSpeed="1.63"/>
    </personinfo>
    <tripinfo id="SN.6" depart="205.00" departLane="3_1_2" departPos="5.10" departSpeed="0.00" departDelay="0.45" arrival="244.50" arrivalLane="1_5_1" arrivalPos="189.60" arrivalSpeed="11.31" duration="39.50" routeLength="395.22" waitingTime="0.00" waitingCount="0" stopTime="0.00" timeLoss="5.45" rerouteNo="0" devices="tripinfo_SN.6 routing_SN.6" vType="DEFAULT_VEHTYPE" speedFactor="1.04" vaporized=""/>
    <tripinfo id="SE.3" depart="205.00" departLane="3_1_1" departPos="5.10" departSpeed="0.00" departDelay="0.45" arrival="245.00" arrivalLane="1_4_1" arrivalPos="186.40" arrivalSpeed="12.33" duration="40.00" routeLength="379.93" waitingTime="2.00" waitingCount="1" stopTime="0.00" timeLoss="9.27" rerouteNo="0" devices="tripinfo_SE.3 routing_SE.3" vType="DEFAULT_VEHTYPE" speedFactor="1.13" vaporized=""/>
    <tripinfo id="NE.1" depart="187.50" departLane="5_1_3" departPos="5.10" departSpeed="0.00" departDelay="0.00" arrival="246.00" arrivalLane="1_4_2" arrivalPos="186.40" arrivalSpeed="13.00" duration="58.50" routeLength="392.89" waitingTime="15.00" waitingCount="3" stopTime="0.00" timeLoss="30.95" rerouteNo="0" devices="tripinfo_NE.1 routing_NE.1" vType="DEFAULT_VEHTYPE" speedFactor="1.30" vaporized=""/>
    <tripinfo id="NS.8" depart="188.00" departLane="5_1_2" departPos="5.10" departSpeed="0.00" departDelay="0.50" arrival="246.50" arrivalLane="1_3_1" arrivalPos="189.60" arrivalSpeed="8.29" duration="58.50" routeLength="395.22" waitingTime="4.50" waitingCount="1" stopTime="0.00" timeLoss="11.15" rerouteNo="0" devices="tripinfo_NS.8 routing_NS.8" vType="DEFAULT_VEHTYPE" speedFactor="0.75" vaporized=""/>
    <personinfo id="person_WE_s.1" depart="54.50" type="DEFAULT_PEDTYPE" speedFactor="1.08" duration="192.50" waitingTime="0.00" timeLoss="53.34" traveltime="192.50">
        <walk depart="54.50" departPos="100.00" arrival="247.00" arrivalPos="93.20" duration="192.50" routeLength="209.26" timeLoss="53.34" maxSpeed="1.50"/>
    </personinfo>
    <personinfo id="person_WE_n.2" depart="80.00" type="DEFAULT_PEDTYPE" speedFactor="1.09" duration="169.00" waitingTime="0.00" timeLoss="20.66" traveltime="169.00">
        <walk depart="80.00" departPos="100.00" arrival="249.00" arrivalPos="93.20" duration="169.00" routeLength="224.16" timeLoss="20.66" maxSpeed="1.51"/>
    </personinfo>
    <personinfo id="person_WE_n.0" depart="12.50" type="DEFAULT_PEDTYPE" speedFactor="1.09" duration="239.00" waitingTime="0.00" timeLoss="91.19" traveltime="239.00">
        <walk depart="12.50" departPos="100.00" arrival="251.50" arrivalPos="93.20" duration="239.00" routeLength="224.16" timeLoss="91.19" maxSpeed="1.52"/>
    </personinfo>
    <tripinfo id="NS.9" depart="211.00" departLane="5_1_1" departPos="5.10" departSpeed="0.00" departDelay="0.06" arrival="251.50" arrivalLane="1_3_1" arrivalPos="189.60" arrivalSpeed="10.72" duration="40.50" routeLength="395.22" waitingTime="0.00" waitingCount="0" stopTime="0.00" timeLoss="3.15" rerouteNo="0" devices="tripinfo_NS.9 routing_NS.9" vType="DEFAULT_VEHTYPE" speedFactor="0.96" vaporized=""/>
    <personinfo id="person_EW_n.1" depart="29.00" type="DEFAULT_PEDTYPE" speedFactor="1.04" duration="223.00" waitingTime="0.00" timeLoss="77.23" traveltime="223.00">
        <walk depart="29.00" departPos="100.00" arrival="252.00" arrivalPos="93.20" duration="223.00" routeLength="210.56" timeLoss="77.23" maxSpeed="1.44"/>
    </personinfo>
    <tripinfo id="EN.1" depart="187.50" departLane="4_1_1" departPos="5.10" departSpeed="0.00" departDelay="0.00" arrival="253.50" arrivalLane="1_5_1" arrivalPos="189.60" arrivalSpeed="7.78" duration="66.00" routeLength="382.62" waitingTime="11.50" waitingCount="1" stopTime="0.00" timeLoss="16.84" rerouteNo="0" devices="tripinfo_EN.1 routing_EN.1" vType="DEFAULT_VEHTYPE" speedFactor="0.71" vaporized=""/>
    <personinfo id="person_NE_diag.0" depart="21.50" type="DEFAULT_PEDTYPE" speedFactor="1.00" duration="232.50" waitingTime="0.00" timeLoss="70.44" traveltime="232.50">
        <walk depart="21.50" departPos="100.00" arrival="254.00" arrivalPos="93.20" duration="232.50" routeLength="225.71" timeLoss="70.44" maxSpeed="1.39"/>
    </personinfo>
    <personinfo id="person_WE_s.3" depart="77.50" type="DEFAULT_PEDTYPE" speedFactor="1.05" duration="177.00" waitingTime="0.00" timeLoss="32.93" traveltime="177.00">
        <walk depart="77.50" departPos="100.00" arrival="254.50" arrivalPos="93.20" duration="177.00" routeLength="209.26" timeLoss="32.93" maxSpeed="1.45"/>
    </personinfo>
    <personinfo id="person_WE_s.0" depart="2.00" type="DEFAULT_PEDTYPE" speedFactor="0.98" duration="255.00" waitingTime="0.00" timeLoss="100.50" traveltime="255.00">
        <walk depart="2.00" departPos="100.00" arrival="257.00" arrivalPos="93.20" duration="255.00" routeLength="209.26" timeLoss="100.50" maxSpeed="1.35"/>
    </personinfo>
    <personinfo id="person_SE_diag.2" depart="126.50" type="DEFAULT_PEDTYPE" speedFactor="1.15" duration="131.50" waitingTime="0.00" timeLoss="13.86" traveltime="131.50">
        <walk depart="126.50" departPos="100.00" arrival="258.00" arrivalPos="93.20" duration="131.50" routeLength="187.66" timeLoss="13.86" maxSpeed="1.60"/>
    </personinfo>
    <personinfo id="person_EW_n.2" depart="36.50" type="DEFAULT_PEDTYPE" speedFactor="0.96" duration="224.50" waitingTime="0.00" timeLoss="66.73" traveltime="224.50">
        <walk depart="36.50" departPos="100.00" arrival="261.00" arrivalPos="93.20" duration="224.50" routeLength="210.56" timeLoss="66.73" maxSpeed="1.33"/>
    </personinfo>
    <personinfo id="person_SW_diag.0" depart="59.00" type="DEFAULT_PEDTYPE" speedFactor="0.97" duration="202.50" waitingTime="0.00" timeLoss="31.65" traveltime="202.50">
        <walk depart="59.00" departPos="100.00" arrival="261.50" arrivalPos="93.20" duration="202.50" routeLength="230.53" timeLoss="31.65" maxSpeed="1.35"/>
    </personinfo>
    <personinfo id="person_WE_n.1" depart="22.50" type="DEFAULT_PEDTYPE" speedFactor="0.93" duration="240.00" waitingTime="0.00" timeLoss="67.11" traveltime="240.00">
        <walk depart="22.50" departPos="100.00" arrival="262.50" arrivalPos="93.20" duration="240.00" routeLength="224.16" timeLoss="67.11" maxSpeed="1.30"/>
    </personinfo>
    <personinfo id="person_NW_diag.1" depart="89.50" type="DEFAULT_PEDTYPE" speedFactor="0.88" duration="173.50" waitingTime="0.00" timeLoss="17.06" traveltime="173.50">
        <walk depart="89.50" departPos="100.00" arrival="263.00" arrivalPos="93.20" duration="173.50" routeLength="190.90" timeLoss="17.06" maxSpeed="1.22"/>
    </personinfo>
    <personinfo id="person_EW_n.3" depart="65.50" type="DEFAULT_PEDTYPE" speedFactor="0.97" duration="198.00" waitingTime="0.00" timeLoss="42.17" traveltime="198.00">
        <walk depart="65.50" departPos="100.00" arrival="263.50" arrivalPos="93.20" duration="198.00" routeLength="210.56" timeLoss="42.17" maxSpeed="1.35"/>
    </personinfo>
    <personinfo id="person_NE_diag.1" depart="40.50" type="DEFAULT_PEDTYPE" speedFactor="0.90" duration="224.00" waitingTime="0.00" timeLoss="42.87" traveltime="224.00">
        <walk depart="40.50" departPos="100.00" arrival="264.50" arrivalPos="93.20" duration="224.00" routeLength="225.71" timeLoss="42.87" maxSpeed="1.25"/>
    </personinfo>
    <personinfo id="person_EW_s.0" depart="31.00" type="DEFAULT_PEDTYPE" speedFactor="0.93" duration="233.50" waitingTime="0.00" timeLoss="60.54" traveltime="233.50">
        <walk depart="31.00" departPos="100.00" arrival="264.50" arrivalPos="93.20" duration="233.50" routeLength="222.86" timeLoss="60.54" maxSpeed="1.29"/>
    </personinfo>
    <personinfo id="person_EW_n.5" depart="88.00" type="DEFAULT_PEDTYPE" speedFactor="0.98" duration="177.00" waitingTime="0.00" timeLoss="23.07" traveltime="177.00">
        <walk depart="88.00" departPos="100.00" arrival="265.00" arrivalPos="93.20" duration="177.00" routeLength="210.56" timeLoss="23.07" maxSpeed="1.37"/>
    </personinfo>
    <personinfo id="person_NE_diag.2" depart="102.50" type="DEFAULT_PEDTYPE" speedFactor="1.09" duration="163.50" waitingTime="0.00" timeLoss="15.72" traveltime="163.50">
        <walk depart="102.50" departPos="100.00" arrival="266.00" arrivalPos="93.20" duration="163.50" routeLength="223.30" timeLoss="15.72" maxSpeed="1.51"/>
    </personinfo>
    <personinfo id="person_EW_n.4" depart="85.50" type="DEFAULT_PEDTYPE" speedFactor="0.92" duration="184.00" waitingTime="0.00" timeLoss="18.96" traveltime="184.00">
        <walk depart="85.50" departPos="100.00" arrival="269.50" arrivalPos="93.20" duration="184.00" routeLength="210.56" timeLoss="18.96" maxSpeed="1.28"/>
    </personinfo>
    <tripinfo id="NS.10" depart="234.50" departLane="5_1_1" departPos="5.10" departSpeed="0.00" departDelay="0.12" arrival="269.50" arrivalLane="1_3_1" arrivalPos="189.60" arrivalSpeed="12.28" duration="35.00" routeLength="395.22" waitingTime="0.00" waitingCount="0" stopTime="0.00" timeLoss="3.72" rerouteNo="0" devices="tripinfo_NS.10 routing_NS.10" vType="DEFAULT_VEHTYPE" speedFactor="1.13" vaporized=""/>
    <personinfo id="person_SN_e.0" depart="113.00" type="DEFAULT_PEDTYPE" speedFactor="1.04" duration="161.00" waitingTime="0.00" timeLoss="16.21" traveltime="161.00">
        <walk depart="113.00" departPos="100.00" arrival="274.00" arrivalPos="94.80" duration="161.00" routeLength="209.13" timeLoss="16.21" maxSpeed="1.44"/>
    </personinfo>
    <personinfo id="person_NS_e.1" depart="71.50" type="DEFAULT_PEDTYPE" speedFactor="0.82" duration="214.50" waitingTime="0.00" timeLoss="22.24" traveltime="214.50">
        <walk depart="71.50" departPos="100.00" arrival="286.00" arrivalPos="94.80" duration="214.50" routeLength="219.53" timeLoss="22.24" maxSpeed="1.14"/>
    </personinfo>
    <personinfo id="person_EW_n.8" depart="118.00" type="DEFAULT_PEDTYPE" speedFactor="1.12" duration="168.50" waitingTime="0.00" timeLoss="33.20" traveltime="168.50">
        <walk depart="118.00" departPos="100.00" arrival="286.50" arrivalPos="93.20" duration="168.50" routeLength="210.56" timeLoss="33.20" maxSpeed="1.56"/>
    </personinfo>
    <personinfo id="person_WE_s.4" depart="124.50" type="DEFAULT_PEDTYPE" speedFactor="1.08" duration="163.50" waitingTime="0.00" timeLoss="23.70" traveltime="163.50">
        <walk depart="124.50" departPos="100.00" arrival="288.00" arrivalPos="93.20" duration="163.50" routeLength="209.26" timeLoss="23.70" maxSpeed="1.50"/>
    </personinfo>
    <personinfo id="person_EW_n.6" depart="107.50" type="DEFAULT_PEDTYPE" speedFactor="1.08" duration="182.50" waitingTime="0.00" timeLoss="42.18" traveltime="182.50">
        <walk depart="107.50" departPos="100.00" arrival="290.00" arrivalPos="93.20" duration="182.50" routeLength="210.56" timeLoss="42.18" maxSpeed="1.50"/>
    </personinfo>
    <personinfo id="person_NW_diag.3" depart="160.50" type="DEFAULT_PEDTYPE" speedFactor="1.13" duration="136.00" waitingTime="0.00" timeLoss="14.03" traveltime="136.00">
        <walk depart="160.50" departPos="100.00" arrival="296.50" arrivalPos="93.20" duration="136.00" routeLength="190.90" timeLoss="14.03" maxSpeed="1.57"/>
    </personinfo>
    <personinfo id="person_NW_diag.2" depart="108.50" type="DEFAULT_PEDTYPE" speedFactor="0.80" duration="190.00" waitingTime="0.00" timeLoss="19.19" traveltime="190.00">
        <walk depart="108.50" departPos="100.00" arrival="298.50" arrivalPos="93.20" duration="190.00" routeLength="190.90" timeLoss="19.19" maxSpeed="1.12"/>
    </personinfo>
    <personinfo id="person_EW_n.7" depart="110.50" type="DEFAULT_PEDTYPE" speedFactor="0.98" duration="188.50" waitingTime="0.00" timeLoss="34.10" traveltime="188.50">
        <walk depart="110.50" departPos="100.00" arrival="299.00" arrivalPos="93.20" duration="188.50" routeLength="210.56" timeLoss="34.10" maxSpeed="1.36"/>
    </personinfo>
    <personinfo id="person_EW_s.1" depart="125.00" type="DEFAULT_PEDTYPE" speedFactor="1.01" duration="175.50" waitingTime="0.00" timeLoss="16.69" traveltime="175.50">