<?xml version="1.0" encoding="UTF-8"?>

<!-- generated on 2025-03-17 17:23:46 by Eclipse SUMO GUI Version 1.22.0
<sumoConfiguration xmlns:xsi="http://www.w3.org/2001/XMLSchema-instance" xsi:noNamespaceSchemaLocation="http://sumo.dlr.de/xsd/sumoConfiguration.xsd">

    <input>
        <net-file value="C:\Users\chris\PycharmProjects\UW_CET593_project2\environment/network_model/UW_intersection_pedestrian_X.net.xml"/>
        <route-files value="C:\Users\chris\PycharmProjects\UW_CET593_project2\environment/network_model/UW_IntersectionDecreaseDemand.rou.xml"/>
        <additional-files value="C:\Users\chris\PycharmProjects\UW_CET593_project2\environment/network_model/UW_intersection_signalFixed.add.xml"/>
    </input>

    <output>
        <queue-output value="C:\Users\chris\PycharmProjects\UW_CET593_project2\environment/simulation_data/UW_intersection/queues_fixed_time_symmetric_pene_80.xml"/>
        <tripinfo-output value="C:\Users\chris\PycharmProjects\UW_CET593_project2\environment/simulation_data/UW_intersection/tripinfo_fixed_time_symmetric_pene_80.xml"/>
    </output>

    <time>
        <begin value="0"/>
        <step-length value="0.5"/>
    </time>

    <processing>
        <waiting-time-memory value="1000"/>
    </processing>

    <report>
        <verbose value="true"/>
        <no-step-log value="true"/>
    </report>

    <traci_server>
        <remote-port value="65464"/>
    </traci_server>

    <gui_only>
        <start value="true"/>
    </gui_only>

</sumoConfiguration>
-->

<tripinfos xmlns:xsi="http://www.w3.org/2001/XMLSchema-instance" xsi:noNamespaceSchemaLocation="http://sumo.dlr.de/xsd/tripinfo_file.xsd">
    <tripinfo id="NS.0" depart="0.00" departLane="5_1_1" departPos="5.10" departSpeed="0.00" departDelay="0.00" arrival="35.50" arrivalLane="1_3_1" arrivalPos="189.60" arrivalSpeed="12.11" duration="35.50" routeLength="395.22" waitingTime="0.00" waitingCount="0" stopTime="0.00" timeLoss="3.63" rerouteNo="0" devices="tripinfo_NS.0 routing_NS.0" vType="DEFAULT_VEHTYPE" speedFactor="1.11" vaporized=""/>
    <tripinfo id="SN.0" depart="0.00" departLane="3_1_2" departPos="5.10" departSpeed="0.00" departDelay="0.00" arrival="38.00" arrivalLane="1_5_1" arrivalPos="189.60" arrivalSpeed="11.46" duration="38.00" routeLength="395.22" waitingTime="0.00" waitingCount="0" stopTime="0.00" timeLoss="3.66" rerouteNo="0" devices="tripinfo_SN.0 routing_SN.0" vType="DEFAULT_VEHTYPE" speedFactor="1.04" vaporized=""/>
    <tripinfo id="SE.0" depart="0.00" departLane="3_1_1" departPos="5.10" departSpeed="0.00" departDelay="0.00" arrival="39.00" arrivalLane="1_4_1" arrivalPos="186.40" arrivalSpeed="10.89" duration="39.00" routeLength="379.93" waitingTime="0.00" waitingCount="0" stopTime="0.00" timeLoss="4.23" rerouteNo="0" devices="tripinfo_SE.0 routing_SE.0" vType="DEFAULT_VEHTYPE" speedFactor="0.99" vaporized=""/>
    <tripinfo id="SW.0" depart="0.00" departLane="3_1_3" departPos="5.10" departSpeed="0.00" departDelay="0.00" arrival="39.00" arrivalLane="1_2_1" arrivalPos="186.40" arrivalSpeed="12.27" duration="39.00" routeLength="392.89" waitingTime="0.50" waitingCount="1" stopTime="0.00" timeLoss="7.69" rerouteNo="0" devices="tripinfo_SW.0 routing_SW.0" vType="DEFAULT_VEHTYPE" speedFactor="1.14" vaporized=""/>
    <tripinfo id="NE.0" depart="0.00" departLane="5_1_3" departPos="5.10" departSpeed="0.00" departDelay="0.00" arrival="39.50" arrivalLane="1_4_2" arrivalPos="186.40" arrivalSpeed="13.87" duration="39.50" routeLength="392.89" waitingTime="1.50" waitingCount="1" stopTime="0.00" timeLoss="10.66" rerouteNo="0" devices="tripinfo_NE.0 routing_NE.0" vType="DEFAULT_VEHTYPE" speedFactor="1.24" vaporized=""/>
    <tripinfo id="NW.0" depart="3.00" departLane="5_1_1" departPos="5.10" departSpeed="0.00" departDelay="3.00" arrival="41.50" arrivalLane="1_2_1" arrivalPos="186.40" arrivalSpeed="12.21" duration="38.50" routeLength="382.62" waitingTime="0.00" waitingCount="0" stopTime="0.00" timeLoss="6.37" rerouteNo="0" devices="tripinfo_NW.0 routing_NW.0" vType="DEFAULT_VEHTYPE" speedFactor="1.09" vaporized=""/>
    <tripinfo id="EN.0" depart="0.00" departLane="4_1_1" departPos="5.10" departSpeed="0.00" departDelay="0.00" arrival="59.50" arrivalLane="1_5_1" arrivalPos="189.60" arrivalSpeed="11.79" duration="59.50" routeLength="382.62" waitingTime="19.00" waitingCount="1" stopTime="0.00" timeLoss="26.70" rerouteNo="0" devices="tripinfo_EN.0 routing_EN.0" vType="DEFAULT_VEHTYPE" speedFactor="1.06" vaporized=""/>
    <tripinfo id="WN.0" depart="2.50" departLane="2_1_1" departPos="5.10" departSpeed="0.00" departDelay="2.50" arrival="61.00" arrivalLane="1_5_2" arrivalPos="189.60" arrivalSpeed="12.39" duration="58.50" routeLength="392.90" waitingTime="15.50" waitingCount="1" stopTime="0.00" timeLoss="27.70" rerouteNo="0" devices="tripinfo_WN.0 routing_WN.0" vType="DEFAULT_VEHTYPE" speedFactor="1.15" vaporized=""/>
    <tripinfo id="WE.0" depart="0.00" departLane="2_1_1" departPos="5.10" departSpeed="0.00" departDelay="0.00" arrival="62.00" arrivalLane="1_4_1" arrivalPos="186.40" arrivalSpeed="10.74" duration="62.00" routeLength="395.13" waitingTime="18.50" waitingCount="1" stopTime="0.00" timeLoss="25.33" rerouteNo="0" devices="tripinfo_WE.0 routing_WE.0" vType="DEFAULT_VEHTYPE" speedFactor="0.97" vaporized=""/>
    <tripinfo id="ES.0" depart="0.00" departLane="4_1_2" departPos="5.10" departSpeed="0.00" departDelay="0.00" arrival="65.00" arrivalLane="1_3_2" arrivalPos="189.60" arrivalSpeed="10.92" duration="65.00" routeLength="392.89" waitingTime="20.00" waitingCount="2" stopTime="0.00" timeLoss="30.16" rerouteNo="0" devices="tripinfo_ES.0 routing_ES.0" vType="DEFAULT_VEHTYPE" speedFactor="1.02" vaporized=""/>
    <tripinfo id="WS.0" depart="5.00" departLane="2_1_1" departPos="5.10" departSpeed="0.00" departDelay="5.00" arrival="66.50" arrivalLane="1_3_1" arrivalPos="189.60" arrivalSpeed="9.58" duration="61.50" routeLength="385.10" waitingTime="12.50" waitingCount="1" stopTime="0.00" timeLoss="23.06" rerouteNo="0" devices="tripinfo_WS.0 routing_WS.0" vType="DEFAULT_VEHTYPE" speedFactor="0.91" vaporized=""/>
    <tripinfo id="EW.0" depart="3.00" departLane="4_1_2" departPos="5.10" departSpeed="0.00" departDelay="3.00" arrival="67.50" arrivalLane="1_2_1" arrivalPos="186.40" arrivalSpeed="10.46" duration="64.50" routeLength="394.90" waitingTime="14.50" waitingCount="2" stopTime="0.00" timeLoss="28.09" rerouteNo="0" devices="tripinfo_EW.0 routing_EW.0" vType="DEFAULT_VEHTYPE" speedFactor="0.97" vaporized=""/>
    <tripinfo id="SN.1" depart="34.50" departLane="3_1_1" departPos="5.10" departSpeed="0.00" departDelay="0.41" arrival="96.00" arrivalLane="1_5_1" arrivalPos="189.60" arrivalSpeed="11.02" duration="61.50" routeLength="395.22" waitingTime="20.00" waitingCount="1" stopTime="0.00" timeLoss="27.20" rerouteNo="0" devices="tripinfo_SN.1 routing_SN.1" vType="DEFAULT_VEHTYPE" speedFactor="1.04" vaporized=""/>
    <tripinfo id="NS.1" depart="23.50" departLane="5_1_1" departPos="5.10" departSpeed="0.00" departDelay="0.06" arrival="97.50" arrivalLane="1_3_1" arrivalPos="189.60" arrivalSpeed="10.66" duration="74.00" routeLength="395.22" waitingTime="29.50" waitingCount="1" stopTime="0.00" timeLoss="37.08" rerouteNo="0" devices="tripinfo_NS.1 routing_NS.1" vType="DEFAULT_VEHTYPE" speedFactor="0.96" vaporized=""/>
    <tripinfo id="NS.2" depart="47.00" departLane="5_1_2" departPos="5.10" departSpeed="0.00" departDelay="0.12" arrival="99.00" arrivalLane="1_3_1" arrivalPos="189.60" arrivalSpeed="9.40" duration="52.00" routeLength="395.22" waitingTime="5.00" waitingCount="1" stopTime="0.00" timeLoss="11.94" rerouteNo="0" devices="tripinfo_NS.2 routing_NS.2" vType="DEFAULT_VEHTYPE" speedFactor="0.88" vaporized=""/>
    <tripinfo id="NW.1" depart="62.50" departLane="5_1_1" departPos="5.10" departSpeed="0.00" departDelay="0.00" arrival="99.50" arrivalLane="1_2_1" arrivalPos="186.40" arrivalSpeed="11.99" duration="37.00" routeLength="382.62" waitingTime="0.00" waitingCount="0" stopTime="0.00" timeLoss="4.85" rerouteNo="0" devices="tripinfo_NW.1 routing_NW.1" vType="DEFAULT_VEHTYPE" speedFactor="1.10" vaporized=""/>
    <tripinfo id="SN.2" depart="68.50" departLane="3_1_2" departPos="5.10" departSpeed="0.00" departDelay="0.32" arrival="107.00" arrivalLane="1_5_1" arrivalPos="189.60" arrivalSpeed="10.78" duration="38.50" routeLength="395.22" waitingTime="0.00" waitingCount="0" stopTime="0.00" timeLoss="3.33" rerouteNo="0" devices="tripinfo_SN.2 routing_SN.2" vType="DEFAULT_VEHTYPE" speedFactor="1.01" vaporized=""/>
    <tripinfo id="SE.1" depart="68.50" departLane="3_1_1" departPos="5.10" departSpeed="0.00" departDelay="0.32" arrival="109.00" arrivalLane="1_4_1" arrivalPos="186.40" arrivalSpeed="10.40" duration="40.50" routeLength="379.93" waitingTime="0.00" waitingCount="0" stopTime="0.00" timeLoss="3.93" rerouteNo="0" devices="tripinfo_SE.1 routing_SE.1" vType="DEFAULT_VEHTYPE" speedFactor="0.95" vaporized=""/>
    <tripinfo id="NS.3" depart="70.50" departLane="5_1_2" departPos="5.10" departSpeed="0.00" departDelay="0.19" arrival="111.00" arrivalLane="1_3_1" arrivalPos="189.60" arrivalSpeed="10.61" duration="40.50" routeLength="395.22" waitingTime="0.00" waitingCount="0" stopTime="0.00" timeLoss="3.95" rerouteNo="0" devices="tripinfo_NS.3 routing_NS.3" vType="DEFAULT_VEHTYPE" speedFactor="0.97" vaporized=""/>
    <tripinfo id="WE.1" depart="62.50" departLane="2_1_1" departPos="5.10" departSpeed="0.00" departDelay="0.00" arrival="129.50" arrivalLane="1_4_1" arrivalPos="186.40" arrivalSpeed="12.51" duration="67.00" routeLength="395.13" waitingTime="27.50" waitingCount="1" stopTime="0.00" timeLoss="35.48" rerouteNo="0" devices="tripinfo_WE.1 routing_WE.1" vType="DEFAULT_VEHTYPE" speedFactor="1.13" vaporized=""/>
    <tripinfo id="WS.1" depart="83.50" departLane="2_1_1" departPos="5.10" departSpeed="0.00" departDelay="0.17" arrival="133.00" arrivalLane="1_3_1" arrivalPos="189.60" arrivalSpeed="11.04" duration="49.50" routeLength="385.10" waitingTime="3.50" waitingCount="1" stopTime="0.00" timeLoss="14.14" rerouteNo="0" devices="tripinfo_WS.1 routing_WS.1" vType="DEFAULT_VEHTYPE" speedFactor="0.99" vaporized=""/>
    <tripinfo id="NS.4" depart="94.00" departLane="5_1_1" departPos="5.10" departSpeed="0.00" departDelay="0.25" arrival="166.00" arrivalLane="1_3_1" arrivalPos="189.60" arrivalSpeed="11.20" duration="72.00" routeLength="395.22" waitingTime="30.00" waitingCount="1" stopTime="0.00" timeLoss="37.40" rerouteNo="0" devices="tripinfo_NS.4 routing_NS.4" vType="DEFAULT_VEHTYPE" speedFactor="1.02" vaporized=""/>
    <tripinfo id="SN.3" depart="102.50" departLane="3_1_1" departPos="5.10" departSpeed="0.00" departDelay="0.23" arrival="166.50" arrivalLane="1_5_1" arrivalPos="189.60" arrivalSpeed="11.14" duration="64.00" routeLength="395.22" waitingTime="22.00" waitingCount="1" stopTime="0.00" timeLoss="28.88" rerouteNo="0" devices="tripinfo_SN.3 routing_SN.3" vType="DEFAULT_VEHTYPE" speedFactor="1.01" vaporized=""/>
    <tripinfo id="NW.2" depart="125.00" departLane="5_1_1" departPos="5.10" departSpeed="0.00" departDelay="0.00" arrival="167.00" arrivalLane="1_2_1" arrivalPos="186.40" arrivalSpeed="11.40" duration="42.00" routeLength="382.62" waitingTime="0.00" waitingCount="0" stopTime="0.00" timeLoss="8.56" rerouteNo="0" devices="tripinfo_NW.2 routing_NW.2" vType="DEFAULT_VEHTYPE" speedFactor="1.04" vaporized=""/>
    <tripinfo id="NS.5" depart="117.50" departLane="5_1_2" departPos="5.10" departSpeed="0.00" departDelay="0.31" arrival="167.50" arrivalLane="1_3_2" arrivalPos="189.60" arrivalSpeed="10.55" duration="50.00" routeLength="395.22" waitingTime="5.50" waitingCount="1" stopTime="0.00" timeLoss="13.30" rerouteNo="0" devices="tripinfo_NS.5 routing_NS.5" vType="DEFAULT_VEHTYPE" speedFactor="0.97" vaporized=""/>
    <personinfo id="person_SE_diag.0" depart="2.00" type="DEFAULT_PEDTYPE" speedFactor="0.90" duration="166.00" waitingTime="0.00" timeLoss="16.12" traveltime="166.00">
        <walk depart="2.00" departPos="100.00" arrival="168.00" arrivalPos="93.20" duration="166.00" routeLength="187.66" timeLoss="16.12" maxSpeed="1.25"/>
    </personinfo>
    <tripinfo id="SE.2" depart="136.50" departLane="3_1_1" departPos="5.10" departSpeed="0.00" departDelay="0.14" arrival="172.50" arrivalLane="1_4_1" arrivalPos="186.40" arrivalSpeed="12.36" duration="36.00" routeLength="379.93" waitingTime="0.00" waitingCount="0" stopTime="0.00" timeLoss="4.79" rerouteNo="0" devices="tripinfo_SE.2 routing_SE.2" vType="DEFAULT_VEHTYPE" speedFactor="1.11" vaporized=""/>
    <tripinfo id="SN.4" depart="136.50" departLane="3_1_2" departPos="5.10" departSpeed="0.00" departDelay="0.14" arrival="178.00" arrivalLane="1_5_1" arrivalPos="189.60" arrivalSpeed="10.06" duration="41.50" routeLength="395.22" waitingTime="0.00" waitingCount="0" stopTime="0.00" timeLoss="3.26" rerouteNo="0" devices="tripinfo_SN.4 routing_SN.4" vType="DEFAULT_VEHTYPE" speedFactor="0.93" vaporized=""/>
    <tripinfo id="NS.6" depart="141.00" departLane="5_1_2" departPos="5.10" departSpeed="0.00" departDelay="0.37" arrival="185.00" arrivalLane="1_3_1" arrivalPos="189.60" arrivalSpeed="9.35" duration="44.00" routeLength="395.22" waitingTime="0.00" waitingCount="0" stopTime="0.00" timeLoss="3.45" rerouteNo="0" devices="tripinfo_NS.6 routing_NS.6" vType="DEFAULT_VEHTYPE" speedFactor="0.88" vaporized=""/>
    <personinfo id="person_EW_n.0" depart="15.50" type="DEFAULT_PEDTYPE" speedFactor="1.17" duration="173.50" waitingTime="0.00" timeLoss="44.05" traveltime="173.50">
        <walk depart="15.50" departPos="100.00" arrival="189.00" arrivalPos="93.20" duration="173.50" routeLength="210.56" timeLoss="44.05" maxSpeed="1.63"/>
    </personinfo>
    <personinfo id="person_WE_n.0" depart="12.50" type="DEFAULT_PEDTYPE" speedFactor="1.09" duration="182.50" waitingTime="0.00" timeLoss="34.69" traveltime="182.50">
        <walk depart="12.50" departPos="100.00" arrival="195.00" arrivalPos="93.20" duration="182.50" routeLength="224.16" timeLoss="34.69" maxSpeed="1.52"/>
    </personinfo>
    <personinfo id="person_NS_e.0" depart="12.50" type="DEFAULT_PEDTYPE" speedFactor="0.96" duration="183.00" waitingTime="0.00" timeLoss="17.61" traveltime="183.00">
        <walk depart="12.50" departPos="100.00" arrival="195.50" arrivalPos="94.80" duration="183.00" routeLength="219.53" timeLoss="17.61" maxSpeed="1.33"/>
    </personinfo>
    <personinfo id="person_EW_n.1" depart="29.00" type="DEFAULT_PEDTYPE" speedFactor="1.04" duration="170.00" waitingTime="0.00" timeLoss="24.23" traveltime="170.00">
        <walk depart="29.00" departPos="100.00" arrival="199.00" arrivalPos="93.20" duration="170.00" routeLength="210.56" timeLoss="24.23" maxSpeed="1.44"/>
    </personinfo>
    <tripinfo id="WE.2" depart="125.00" departLane="2_1_1" departPos="5.10" departSpeed="0.00" departDelay="0.00" arrival="199.50" arrivalLane="1_4_1" arrivalPos="186.40" arrivalSpeed="12.30" duration="74.50" routeLength="395.13" waitingTime="35.00" waitingCount="1" stopTime="0.00" timeLoss="43.23" rerouteNo="0" devices="tripinfo_WE.2 routing_WE.2" vType="DEFAULT_VEHTYPE" speedFactor="1.14" vaporized=""/>
    <personinfo id="person_WE_s.0" depart="2.00" type="DEFAULT_PEDTYPE" speedFactor="0.98" duration="200.00" waitingTime="0.00" timeLoss="45.50" traveltime="200.00">
        <walk depart="2.00" departPos="100.00" arrival="202.00" arrivalPos="93.20" duration="200.00" routeLength="209.26" timeLoss="45.50" maxSpeed="1.35"/>
    </personinfo>
    <personinfo id="person_NE_diag.0" depart="21.50" type="DEFAULT_PEDTYPE" speedFactor="1.00" duration="181.50" waitingTime="0.00" timeLoss="19.44" traveltime="181.50">
        <walk depart="21.50" departPos="100.00" arrival="203.00" arrivalPos="93.20" duration="181.50" routeLength="225.71" timeLoss="19.44" maxSpeed="1.39"/>
    </personinfo>
    <personinfo id="person_WE_s.2" depart="64.50" type="DEFAULT_PEDTYPE" speedFactor="1.20" duration="139.00" waitingTime="0.00" timeLoss="13.49" traveltime="139.00">
        <walk depart="64.50" departPos="100.00" arrival="203.50" arrivalPos="93.20" duration="139.00" routeLength="209.26" timeLoss="13.49" maxSpeed="1.67"/>
    </personinfo>
    <tripinfo id="WS.2" depart="167.00" departLane="2_1_1" departPos="5.10" departSpeed="0.00" departDelay="0.33" arrival="207.00" arrivalLane="1_3_1" arrivalPos="189.60" arrivalSpeed="10.59" duration="40.00" routeLength="385.10" waitingTime="0.00" waitingCount="0" stopTime="0.00" timeLoss="4.39" rerouteNo="0" devices="tripinfo_WS.2 routing_WS.2" vType="DEFAULT_VEHTYPE" speedFactor="0.98" vaporized=""/>
    <personinfo id="person_WE_s.1" depart="54.50" type="DEFAULT_PEDTYPE" speedFactor="1.08" duration="155.00" waitingTime="0.00" timeLoss="15.84" traveltime="155.00">
        <walk depart="54.50" departPos="100.00" arrival="209.50" arrivalPos="93.20" duration="155.00" routeLength="209.26" timeLoss="15.84" maxSpeed="1.50"/>
    </personinfo>
    <personinfo id="person_EW_n.2" depart="36.50" type="DEFAULT_PEDTYPE" speedFactor="0.96" duration="176.00" waitingTime="0.00" timeLoss="18.23" traveltime="176.00">
        <walk depart="36.50" departPos="100.00" arrival="212.50" arrivalPos="93.20" duration="176.00" routeLength="210.56" timeLoss="18.23" maxSpeed="1.33"/>
    </personinfo>
    <personinfo id="person_WE_n.1" depart="22.50" type="DEFAULT_PEDTYPE" speedFactor="0.93" duration="192.50" waitingTime="0.00" timeLoss="19.61" traveltime="192.50">
        <walk depart="22.50" departPos="100.00" arrival="215.00" arrivalPos="93.20" duration="192.50" routeLength="224.16" timeLoss="19.61" maxSpeed="1.30"/>
    </personinfo>
    <personinfo id="person_SE_diag.1" depart="66.50" type="DEFAULT_PEDTYPE" speedFactor="1.00" duration="151.00" waitingTime="0.00" timeLoss="15.73" traveltime="151.00">
        <walk depart="66.50" departPos="100.00" arrival="217.50" arrivalPos="93.20" duration="151.00" routeLength="187.66" timeLoss="15.73" maxSpeed="1.39"/>
    </personinfo>
    <personinfo id="person_NW_diag.0" depart="58.50" type="DEFAULT_PEDTYPE" speedFactor="0.93" duration="164.50" waitingTime="0.00" timeLoss="16.45" traveltime="164.50">
        <walk depart="58.50" departPos="100.00" arrival="223.00" arrivalPos="93.20" duration="164.50" routeLength="190.90" timeLoss="16.45" maxSpeed="1.29"/>
    </personinfo>
    <personinfo id="person_EW_s.0" depart="31.00" type="DEFAULT_PEDTYPE" speedFactor="0.93" duration="192.50" waitingTime="0.00" timeLoss="19.54" traveltime="192.50">
        <walk depart="31.00" departPos="100.00" arrival="223.50" arrivalPos="93.20" duration="192.50" routeLength="222.86" timeLoss="19.54" maxSpeed="1.29"/>
    </personinfo>
    <tripinfo id="NE.1" depart="187.50" departLane="5_1_3" departPos="5.10" departSpeed="0.00" departDelay="0.00" arrival="228.50" arrivalLane="1_4_2" arrivalPos="186.40" arrivalSpeed="14.40" duration="41.00" routeLength="392.89" waitingTime="3.50" waitingCount="1" stopTime="0.00" timeLoss="13.56" rerouteNo="0" devices="tripinfo_NE.1 routing_NE.1" vType="DEFAULT_VEHTYPE" speedFactor="1.30" vaporized=""/>
    <tripinfo id="NS.7" depart="164.50" departLane="5_1_1" departPos="5.10" departSpeed="0.00" departDelay="0.43" arrival="237.00" arrivalLane="1_3_1" arrivalPos="189.60" arrivalSpeed="10.84" duration="72.50" routeLength="395.22" waitingTime="29.00" waitingCount="1" stopTime="0.00" timeLoss="36.35" rerouteNo="0" devices="tripinfo_NS.7 routing_NS.7" vType="DEFAULT_VEHTYPE" speedFactor="0.99" vaporized=""/>
    <tripinfo id="NW.3" depart="187.50" departLane="5_1_1" departPos="5.10" departSpeed="0.00" departDelay="0.00" arrival="237.50" arrivalLane="1_2_1" arrivalPos="186.40" arrivalSpeed="11.16" duration="50.00" routeLength="382.62" waitingTime="5.50" waitingCount="1" stopTime="0.00" timeLoss="15.70" rerouteNo="0" devices="tripinfo_NW.3 routing_NW.3" vType="DEFAULT_VEHTYPE" speedFactor="1.01" vaporized=""/>
    <tripinfo id="SN.5" depart="170.50" departLane="3_1_1" departPos="5.10" departSpeed="0.00" departDelay="0.05" arrival="239.00" arrivalLane="1_5_1" arrivalPos="189.60" arrivalSpeed="9.82" duration="68.50" routeLength="395.22" waitingTime="21.50" waitingCount="1" stopTime="0.00" timeLoss="27.97" rerouteNo="0" devices="tripinfo_SN.5 routing_SN.5" vType="DEFAULT_VEHTYPE" speedFactor="0.88" vaporized=""/>
    <personinfo id="person_NE_diag.1" depart="40.50" type="DEFAULT_PEDTYPE" speedFactor="0.90" duration="200.50" waitingTime="0.00" timeLoss="21.31" traveltime="200.50">
        <walk depart="40.50" departPos="100.00" arrival="241.00" arrivalPos="93.20" duration="200.50" routeLength="223.30" timeLoss="21.31" maxSpeed="1.25"/>
    </personinfo>
    <tripinfo id="NS.8" depart="188.00" departLane="5_1_2" departPos="5.10" departSpeed="0.00" departDelay="0.50" arrival="242.50" arrivalLane="1_3_1" arrivalPos="189.60" arrivalSpeed="8.34" duration="54.50" routeLength="395.22" waitingTime="0.00" waitingCount="0" stopTime="0.00" timeLoss="7.57" rerouteNo="0" devices="tripinfo_NS.8 routing_NS.8" vType="DEFAULT_VEHTYPE" speedFactor="0.75" vaporized=""/>
    <tripinfo id="SN.6" depart="205.00" departLane="3_1_2" departPos="5.10" departSpeed="0.00" departDelay="0.45" arrival="242.50" arrivalLane="1_5_2" arrivalPos="189.60" arrivalSpeed="11.47" duration="37.50" routeLength="395.22" waitingTime="0.00" waitingCount="0" stopTime="0.00" timeLoss="3.40" rerouteNo="0" devices="tripinfo_SN.6 routing_SN.6" vType="DEFAULT_VEHTYPE" speedFactor="1.04" vaporized=""/>
    <tripinfo id="SE.3" depart="205.00" departLane="3_1_1" departPos="5.10" departSpeed="0.00" departDelay="0.45" arrival="245.00" arrivalLane="1_4_1" arrivalPos="186.40" arrivalSpeed="12.54" duration="40.00" routeLength="379.93" waitingTime="2.50" waitingCount="1" stopTime="0.00" timeLoss="9.52" rerouteNo="0" devices="tripinfo_SE.3 routing_SE.3" vType="DEFAULT_VEHTYPE" speedFactor="1.13" vaporized=""/>
    <tripinfo id="NS.9" depart="211.00" departLane="5_1_1" departPos="5.10" departSpeed="0.00" departDelay="0.06" arrival="252.00" arrivalLane="1_3_1" arrivalPos="189.60" arrivalSpeed="10.70" duration="41.00" routeLength="395.22" waitingTime="0.00" waitingCount="0" stopTime="0.00" timeLoss="3.81" rerouteNo="0" devices="tripinfo_NS.9 routing_NS.9" vType="DEFAULT_VEHTYPE" speedFactor="0.96" vaporized=""/>
    <personinfo id="person_SE_diag.2" depart="126.50" type="DEFAULT_PEDTYPE" speedFactor="1.15" duration="131.00" waitingTime="0.00" timeLoss="13.36" traveltime="131.00">
        <walk depart="126.50" departPos="100.00" arrival="257.50" arrivalPos="93.20" duration="131.00" routeLength="187.66" timeLoss="13.36" maxSpeed="1.60"/>
    </personinfo>
    <personinfo id="person_NW_diag.1" depart="89.50" type="DEFAULT_PEDTYPE" speedFactor="0.88" duration="174.00" waitingTime="0.00" timeLoss="17.56" traveltime="174.00">
        <walk depart="89.50" departPos="100.00" arrival="263.50" arrivalPos="93.20" duration="174.00" routeLength="190.90" timeLoss="17.56" maxSpeed="1.22"/>
    </personinfo>
    <personinfo id="person_WE_n.2" depart="80.00" type="DEFAULT_PEDTYPE" speedFactor="1.09" duration="185.00" waitingTime="0.00" timeLoss="36.66" traveltime="185.00">
        <walk depart="80.00" departPos="100.00" arrival="265.00" arrivalPos="93.20" duration="185.00" routeLength="224.16" timeLoss="36.66" maxSpeed="1.51"/>
    </personinfo>
    <personinfo id="person_WE_s.3" depart="77.50" type="DEFAULT_PEDTYPE" speedFactor="1.05" duration="188.50" waitingTime="0.00" timeLoss="44.43" traveltime="188.50">
        <walk depart="77.50" departPos="100.00" arrival="266.00" arrivalPos="93.20" duration="188.50" routeLength="209.26" timeLoss="44.43" maxSpeed="1.45"/>
    </personinfo>
    <personinfo id="person_NE_diag.2" depart="102.50" type="DEFAULT_PEDTYPE" speedFactor="1.09" duration="166.00" waitingTime="0.00" timeLoss="16.62" traveltime="166.00">
        <walk depart="102.50" departPos="100.00" arrival="268.50" arrivalPos="93.20" duration="166.00" routeLength="225.71" timeLoss="16.62" maxSpeed="1.51"/>
    </personinfo>
    <personinfo id="person_EW_n.8" depart="118.00" type="DEFAULT_PEDTYPE" speedFactor="1.12" duration="152.00" waitingTime="0.00" timeLoss="16.70" traveltime="152.00">
        <walk depart="118.00" departPos="100.00" arrival="270.00" arrivalPos="93.20" duration="152.00" routeLength="210.56" timeLoss="16.70" maxSpeed="1.56"/>
    </personinfo>
    <tripinfo id="EW.1" depart="187.50" departLane="4_1_2" departPos="5.10" departSpeed="0.00" departDelay="0.00" arrival="272.50" arrivalLane="1_2_1" arrivalPos="186.40" arrivalSpeed="10.33" duration="85.00" routeLength="394.90" waitingTime="40.00" waitingCount="1" stopTime="0.00" timeLoss="47.96" rerouteNo="0" devices="tripinfo_EW.1 routing_EW.1" vType="DEFAULT_VEHTYPE" speedFactor="0.96" vaporized=""/>
    <personinfo id="person_EW_n.5" depart="88.00" type="DEFAULT_PEDTYPE" speedFactor="0.98" duration="186.00" waitingTime="0.00" timeLoss="32.07" traveltime="186.00">
        <walk depart="88.00" departPos="100.00" arrival="274.00" arrivalPos="93.20" duration="186.00" routeLength="210.56" timeLoss="32.07" maxSpeed="1.37"/>
    </personinfo>
    <personinfo id="person_EW_n.6" depart="107.50" type="DEFAULT_PEDTYPE" speedFactor="1.08" duration="167.00" waitingTime="0.00" timeLoss="26.68" traveltime="167.00">
        <walk depart="107.50" departPos="100.00" arrival="274.50" arrivalPos="93.20" duration="167.00" routeLength="210.56" timeLoss="26.68" maxSpeed="1.50"/>
    </personinfo>
    <tripinfo id="WE.3" depart="187.50" departLane="2_1_1" departPos="5.10" departSpeed="0.00" departDelay="0.00" arrival="275.00" arrivalLane="1_4_1" arrivalPos="186.40" arrivalSpeed="9.34" duration="87.50" routeLength="395.13" waitingTime="38.50" waitingCount="1" stopTime="0.00" timeLoss="45.14" rerouteNo="0" devices="tripinfo_WE.3 routing_WE.3" vType="DEFAULT_VEHTYPE" speedFactor="0.84" vaporized=""/>
    <personinfo id="person_SW_diag.0" depart="59.00" type="DEFAULT_PEDTYPE" speedFactor="0.97" duration="216.50" waitingTime="0.00" timeLoss="47.15" traveltime="216.50">
        <walk depart="59.00" departPos="100.00" arrival="275.50" arrivalPos="93.20" duration="216.50" routeLength="228.50" timeLoss="47.15" maxSpeed="1.35"/>
    </personinfo>
    <personinfo id="person_EW_n.3" depart="65.50" type="DEFAULT_PEDTYPE" speedFactor="0.97" duration="210.50" waitingTime="0.00" timeLoss="54.67" traveltime="210.50">
        <walk depart="65.50" departPos="100.00" arrival="276.00" arrivalPos="93.20" duration="210.50" routeLength="210.56" timeLoss="54.67" maxSpeed="1.35"/>
    </personinfo>
    <personinfo id="person_WE_s.4" depart="124.50" type="DEFAULT_PEDTYPE" speedFactor="1.08" duration="154.50" waitingTime="0.00" timeLoss="14.70" traveltime="154.50">
        <walk depart="124.50" departPos="100.00" arrival="279.00" arrivalPos="93.20" duration="154.50" routeLength="209.26" timeLoss="14.70" maxSpeed="1.50"/>
    </personinfo>
    <personinfo id="person_EW_n.4" depart="85.50" type="DEFAULT_PEDTYPE" speedFactor="0.92" duration="195.50" waitingTime="0.00" timeLoss="30.46" traveltime="195.50">
        <walk depart="85.50" departPos="100.00" arrival="281.00" arrivalPos="93.20" duration="195.50" routeLength="210.56" timeLoss="30.46" maxSpeed="1.28"/>
    </personinfo>
    <personinfo id="person_EW_n.7" depart="110.50" type="DEFAULT_PEDTYPE" speedFactor="0.98" duration="172.00" waitingTime="0.00" timeLoss="17.60" traveltime="172.00">
        <walk depart="110.50" departPos="100.00" arrival="282.50" arrivalPos="93.20" duration="172.00" routeLength="210.56" timeLoss="17.60" maxSpeed="1.36"/>
    </personinfo>
    <personinfo id="person_WE_n.3" depart="101.50" type="DEFAULT_PEDTYPE" speedFactor="0.95" duration="189.00" waitingTime="0.00" timeLoss="19.45" traveltime="189.00">
        <walk depart="101.50" departPos="100.00" arrival="290.50" arrivalPos="93.20" duration="189.00" routeLength="224.16" timeLoss="19.45" maxSpeed="1.32"/>
    </personinfo>
    <tripinfo id="EN.1" depart="187.50" departLane="4_1_1" departPos="5.10" departSpeed="0.00" departDelay="0.00" arrival="292.00" arrivalLane="1_5_1" arrivalPos="189.60" arrivalSpeed="7.58" duration="104.50" routeLength="382.62" waitingTime="46.00" waitingCount="2" stopTime="0.00" timeLoss="55.09" rerouteNo="0" devices="tripinfo_EN.1 routing_EN.1" vType="DEFAULT_VEHTYPE" speedFactor="0.71" vaporized=""/>
    <tripinfo id="WE.4" depart="250.00" departLane="2_1_1" departPos="5.10" departSpeed="0.00" departDelay="0.00" arrival="292.50" arrivalLane="1_4_1" arrivalPos="186.40" arrivalSpeed="9.89" duration="42.50" routeLength="395.13" waitingTime="0.00" waitingCount="0" stopTime="0.00" timeLoss="3.54" rerouteNo="0" devices="tripinfo_WE.4 routing_WE.4" vType="DEFAULT_VEHTYPE" speedFactor="0.92" vaporized=""/>
    <tripinfo id="WS.3" depart="252.50" departLane="2_1_1" departPos="5.10" departSpeed="0.00" departDelay="2.50" arrival="293.50" arrivalLane="1_3_1" arrivalPos="189.60" arrivalSpeed="10.73" duration="41.00" routeLength="385.10" waitingTime="0.00" waitingCount="0" stopTime="0.00" timeLoss="4.70" rerouteNo="0" devices="tripinfo_WS.3 routing_WS.3" vType="DEFAULT_VEHTYPE" speedFactor="0.96" vaporized=""/>
    <personinfo id="person_NW_diag.3" depart="160.50" type="DEFAULT_PEDTYPE" speedFactor="1.13" duration="135.50" waitingTime="0.00" timeLoss="13.53" traveltime="135.50">
        <walk depart="160.50" departPos="100.00" arrival="296.00" arrivalPos="93.20" duration="135.50" routeLength="190.90" timeLoss="13.53" maxSpeed="1.57"/>
    </personinfo>
    <personinfo id="person_NW_diag.2" depart="108.50" type="DEFAULT_PEDTYPE" speedFactor="0.80" duration="189.50" waitingTime="0.00" timeLoss="18.69" traveltime="189.50">
        <walk depart="108.50" departPos="100.00" arrival="298.00" arrivalPos="93.20" duration="189.50" routeLength="190.90" timeLoss="18.69" maxSpeed="1.12"/>
    </personinfo>