<?xml version="1.0" encoding="UTF-8"?>

<!-- generated on 2025-03-17 13:36:32 by Eclipse SUMO GUI Version 1.22.0
<sumoConfiguration xmlns:xsi="http://www.w3.org/2001/XMLSchema-instance" xsi:noNamespaceSchemaLocation="http://sumo.dlr.de/xsd/sumoConfiguration.xsd">

    <input>
        <net-file value="C:\Users\chris\PycharmProjects\UW_CET593_project2\environment/network_model/UW_intersection_pedestrian_X.net.xml"/>
        <route-files value="C:\Users\chris\PycharmProjects\UW_CET593_project2\environment/network_model/UW_IntersectionNormalDemand.rou.xml"/>
        <additional-files value="C:\Users\chris\PycharmProjects\UW_CET593_project2\environment/network_model/UW_intersection_signalFixed.add.xml"/>
    </input>

    <output>
        <queue-output value="C:\Users\chris\PycharmProjects\UW_CET593_project2\environment/simulation_data/UW_intersection/queues_fixed_time_symmetric_pene_50.xml"/>
        <tripinfo-output value="C:\Users\chris\PycharmProjects\UW_CET593_project2\environment/simulation_data/UW_intersection/tripinfo_fixed_time_symmetric_pene_50.xml"/>
    </output>

    <time>
        <begin value="0"/>
        <step-length value="0.5"/>
    </time>

    <processing>
        <waiting-time-memory value="1000"/>
    </processing>

    <report>
        <verbose value="true"/>
        <no-step-log value="true"/>
    </report>

    <traci_server>
        <remote-port value="49750"/>
    </traci_server>

    <gui_only>
        <start value="true"/>
    </gui_only>

</sumoConfiguration>
-->

<tripinfos xmlns:xsi="http://www.w3.org/2001/XMLSchema-instance" xsi:noNamespaceSchemaLocation="http://sumo.dlr.de/xsd/tripinfo_file.xsd">
    <tripinfo id="NS.0" depart="0.00" departLane="5_1_1" departPos="5.10" departSpeed="0.00" departDelay="0.00" arrival="37.00" arrivalLane="1_3_1" arrivalPos="189.60" arrivalSpeed="11.53" duration="37.00" routeLength="395.22" waitingTime="0.00" waitingCount="0" stopTime="0.00" timeLoss="3.58" rerouteNo="0" devices="tripinfo_NS.0 routing_NS.0" vType="DEFAULT_VEHTYPE" speedFactor="1.06" vaporized=""/>
    <tripinfo id="SN.0" depart="0.00" departLane="3_1_2" departPos="5.10" departSpeed="0.00" departDelay="0.00" arrival="37.50" arrivalLane="1_5_1" arrivalPos="189.60" arrivalSpeed="11.72" duration="37.50" routeLength="395.22" waitingTime="0.00" waitingCount="0" stopTime="0.00" timeLoss="3.66" rerouteNo="0" devices="tripinfo_SN.0 routing_SN.0" vType="DEFAULT_VEHTYPE" speedFactor="1.05" vaporized=""/>
    <tripinfo id="SE.0" depart="0.00" departLane="3_1_1" departPos="5.10" departSpeed="0.00" departDelay="0.00" arrival="39.50" arrivalLane="1_4_1" arrivalPos="186.40" arrivalSpeed="10.99" duration="39.50" routeLength="379.93" waitingTime="0.00" waitingCount="0" stopTime="0.00" timeLoss="4.19" rerouteNo="0" devices="tripinfo_SE.0 routing_SE.0" vType="DEFAULT_VEHTYPE" speedFactor="0.99" vaporized=""/>
    <tripinfo id="NE.0" depart="0.00" departLane="5_1_3" departPos="5.10" departSpeed="0.00" departDelay="0.00" arrival="42.50" arrivalLane="1_4_2" arrivalPos="186.40" arrivalSpeed="10.60" duration="42.50" routeLength="392.89" waitingTime="0.00" waitingCount="0" stopTime="0.00" timeLoss="5.29" rerouteNo="0" devices="tripinfo_NE.0 routing_NE.0" vType="DEFAULT_VEHTYPE" speedFactor="0.96" vaporized=""/>
    <tripinfo id="SW.0" depart="0.00" departLane="3_1_3" departPos="5.10" departSpeed="0.00" departDelay="0.00" arrival="43.50" arrivalLane="1_2_1" arrivalPos="186.40" arrivalSpeed="9.94" duration="43.50" routeLength="392.89" waitingTime="0.00" waitingCount="0" stopTime="0.00" timeLoss="3.95" rerouteNo="0" devices="tripinfo_SW.0 routing_SW.0" vType="DEFAULT_VEHTYPE" speedFactor="0.90" vaporized=""/>
    <tripinfo id="NW.0" depart="3.00" departLane="5_1_1" departPos="5.10" departSpeed="0.00" departDelay="3.00" arrival="45.00" arrivalLane="1_2_1" arrivalPos="186.40" arrivalSpeed="10.81" duration="42.00" routeLength="382.62" waitingTime="0.00" waitingCount="0" stopTime="0.00" timeLoss="6.65" rerouteNo="0" devices="tripinfo_NW.0 routing_NW.0" vType="DEFAULT_VEHTYPE" speedFactor="0.99" vaporized=""/>
    <tripinfo id="WE.0" depart="0.00" departLane="2_1_1" departPos="5.10" departSpeed="0.00" departDelay="0.00" arrival="60.00" arrivalLane="1_4_1" arrivalPos="186.40" arrivalSpeed="11.66" duration="60.00" routeLength="395.13" waitingTime="20.00" waitingCount="1" stopTime="0.00" timeLoss="27.43" rerouteNo="0" devices="tripinfo_WE.0 routing_WE.0" vType="DEFAULT_VEHTYPE" speedFactor="1.09" vaporized=""/>
    <tripinfo id="EN.0" depart="0.00" departLane="4_1_1" departPos="5.10" departSpeed="0.00" departDelay="0.00" arrival="60.50" arrivalLane="1_5_1" arrivalPos="189.60" arrivalSpeed="10.33" duration="60.50" routeLength="382.62" waitingTime="18.50" waitingCount="1" stopTime="0.00" timeLoss="25.17" rerouteNo="0" devices="tripinfo_EN.0 routing_EN.0" vType="DEFAULT_VEHTYPE" speedFactor="0.98" vaporized=""/>
    <tripinfo id="WN.0" depart="2.50" departLane="2_1_1" departPos="5.10" departSpeed="0.00" departDelay="2.50" arrival="61.50" arrivalLane="1_5_2" arrivalPos="189.60" arrivalSpeed="12.34" duration="59.00" routeLength="392.90" waitingTime="16.00" waitingCount="1" stopTime="0.00" timeLoss="27.09" rerouteNo="0" devices="tripinfo_WN.0 routing_WN.0" vType="DEFAULT_VEHTYPE" speedFactor="1.11" vaporized=""/>
    <tripinfo id="WS.0" depart="5.00" departLane="2_1_1" departPos="5.10" departSpeed="0.00" departDelay="5.00" arrival="63.50" arrivalLane="1_3_1" arrivalPos="189.60" arrivalSpeed="11.47" duration="58.50" routeLength="385.10" waitingTime="14.00" waitingCount="1" stopTime="0.00" timeLoss="26.02" rerouteNo="0" devices="tripinfo_WS.0 routing_WS.0" vType="DEFAULT_VEHTYPE" speedFactor="1.07" vaporized=""/>
    <tripinfo id="ES.0" depart="0.00" departLane="4_1_2" departPos="5.10" departSpeed="0.00" departDelay="0.00" arrival="65.00" arrivalLane="1_3_2" arrivalPos="189.60" arrivalSpeed="11.23" duration="65.00" routeLength="392.89" waitingTime="20.50" waitingCount="2" stopTime="0.00" timeLoss="30.67" rerouteNo="0" devices="tripinfo_ES.0 routing_ES.0" vType="DEFAULT_VEHTYPE" speedFactor="1.04" vaporized=""/>
    <tripinfo id="EW.0" depart="3.00" departLane="4_1_2" departPos="5.10" departSpeed="0.00" departDelay="3.00" arrival="67.50" arrivalLane="1_2_1" arrivalPos="186.40" arrivalSpeed="10.81" duration="64.50" routeLength="394.90" waitingTime="15.00" waitingCount="2" stopTime="0.00" timeLoss="28.32" rerouteNo="0" devices="tripinfo_EW.0 routing_EW.0" vType="DEFAULT_VEHTYPE" speedFactor="0.98" vaporized=""/>
    <tripinfo id="NS.1" depart="19.00" departLane="5_1_2" departPos="5.10" departSpeed="0.00" departDelay="0.25" arrival="94.00" arrivalLane="1_3_1" arrivalPos="189.60" arrivalSpeed="13.02" duration="75.00" routeLength="395.22" waitingTime="37.00" waitingCount="1" stopTime="0.00" timeLoss="45.54" rerouteNo="0" devices="tripinfo_NS.1 routing_NS.1" vType="DEFAULT_VEHTYPE" speedFactor="1.21" vaporized=""/>
    <tripinfo id="SN.1" depart="27.50" departLane="3_1_1" departPos="5.10" departSpeed="0.00" departDelay="0.23" arrival="94.00" arrivalLane="1_5_1" arrivalPos="189.60" arrivalSpeed="12.33" duration="66.50" routeLength="395.22" waitingTime="28.00" waitingCount="1" stopTime="0.00" timeLoss="35.83" rerouteNo="0" devices="tripinfo_SN.1 routing_SN.1" vType="DEFAULT_VEHTYPE" speedFactor="1.15" vaporized=""/>
    <tripinfo id="SN.2" depart="55.00" departLane="3_1_2" departPos="5.10" departSpeed="0.00" departDelay="0.45" arrival="94.00" arrivalLane="1_5_2" arrivalPos="189.60" arrivalSpeed="12.32" duration="39.00" routeLength="395.22" waitingTime="1.00" waitingCount="1" stopTime="0.00" timeLoss="8.46" rerouteNo="0" devices="tripinfo_SN.2 routing_SN.2" vType="DEFAULT_VEHTYPE" speedFactor="1.16" vaporized=""/>
    <tripinfo id="NS.2" depart="37.50" departLane="5_1_2" departPos="5.10" departSpeed="0.00" departDelay="0.00" arrival="95.00" arrivalLane="1_3_1" arrivalPos="189.60" arrivalSpeed="12.49" duration="57.50" routeLength="395.22" waitingTime="17.00" waitingCount="1" stopTime="0.00" timeLoss="25.94" rerouteNo="0" devices="tripinfo_NS.2 routing_NS.2" vType="DEFAULT_VEHTYPE" speedFactor="1.13" vaporized=""/>
    <tripinfo id="NW.1" depart="50.00" departLane="5_1_1" departPos="5.10" departSpeed="0.00" departDelay="0.00" arrival="98.50" arrivalLane="1_2_1" arrivalPos="186.40" arrivalSpeed="10.82" duration="48.50" routeLength="382.62" waitingTime="2.50" waitingCount="1" stopTime="0.00" timeLoss="12.48" rerouteNo="0" devices="tripinfo_NW.1 routing_NW.1" vType="DEFAULT_VEHTYPE" speedFactor="0.98" vaporized=""/>
    <tripinfo id="SE.1" depart="55.00" departLane="3_1_1" departPos="5.10" departSpeed="0.00" departDelay="0.46" arrival="101.00" arrivalLane="1_4_1" arrivalPos="186.40" arrivalSpeed="12.34" duration="46.00" routeLength="379.93" waitingTime="2.50" waitingCount="1" stopTime="0.00" timeLoss="15.28" rerouteNo="0" devices="tripinfo_SE.1 routing_SE.1" vType="DEFAULT_VEHTYPE" speedFactor="1.13" vaporized=""/>
    <tripinfo id="NS.3" depart="56.50" departLane="5_1_2" departPos="5.10" departSpeed="0.00" departDelay="0.25" arrival="101.50" arrivalLane="1_3_1" arrivalPos="189.60" arrivalSpeed="9.49" duration="45.00" routeLength="395.22" waitingTime="0.00" waitingCount="0" stopTime="0.00" timeLoss="4.28" rerouteNo="0" devices="tripinfo_NS.3 routing_NS.3" vType="DEFAULT_VEHTYPE" speedFactor="0.87" vaporized=""/>
    <tripinfo id="NS.4" depart="75.00" departLane="5_1_2" departPos="5.10" departSpeed="0.00" departDelay="0.00" arrival="121.50" arrivalLane="1_3_1" arrivalPos="189.60" arrivalSpeed="9.21" duration="46.50" routeLength="395.22" waitingTime="0.00" waitingCount="0" stopTime="0.00" timeLoss="3.62" rerouteNo="0" devices="tripinfo_NS.4 routing_NS.4" vType="DEFAULT_VEHTYPE" speedFactor="0.82" vaporized=""/>
    <tripinfo id="SN.3" depart="82.00" departLane="3_1_1" departPos="5.10" departSpeed="0.00" departDelay="0.18" arrival="123.00" arrivalLane="1_5_1" arrivalPos="189.60" arrivalSpeed="10.28" duration="41.00" routeLength="395.22" waitingTime="0.00" waitingCount="0" stopTime="0.00" timeLoss="3.22" rerouteNo="0" devices="tripinfo_SN.3 routing_SN.3" vType="DEFAULT_VEHTYPE" speedFactor="0.94" vaporized=""/>
    <tripinfo id="WE.1" depart="50.00" departLane="2_1_1" departPos="5.10" departSpeed="0.00" departDelay="0.00" arrival="129.00" arrivalLane="1_4_1" arrivalPos="186.40" arrivalSpeed="12.80" duration="79.00" routeLength="395.13" waitingTime="41.00" waitingCount="1" stopTime="0.00" timeLoss="48.90" rerouteNo="0" devices="tripinfo_WE.1 routing_WE.1" vType="DEFAULT_VEHTYPE" speedFactor="1.18" vaporized=""/>
    <tripinfo id="WS.1" depart="67.50" departLane="2_1_1" departPos="5.10" departSpeed="0.00" departDelay="0.83" arrival="141.00" arrivalLane="1_3_1" arrivalPos="189.60" arrivalSpeed="9.47" duration="73.50" routeLength="385.10" waitingTime="20.50" waitingCount="3" stopTime="0.00" timeLoss="33.20" rerouteNo="0" devices="tripinfo_WS.1 routing_WS.1" vType="DEFAULT_VEHTYPE" speedFactor="0.87" vaporized=""/>
    <tripinfo id="WE.2" depart="100.00" departLane="2_1_1" departPos="5.10" departSpeed="0.00" departDelay="0.00" arrival="141.50" arrivalLane="1_4_1" arrivalPos="186.40" arrivalSpeed="10.61" duration="41.50" routeLength="395.13" waitingTime="0.00" waitingCount="0" stopTime="0.00" timeLoss="4.23" rerouteNo="0" devices="tripinfo_WE.2 routing_WE.2" vType="DEFAULT_VEHTYPE" speedFactor="0.95" vaporized=""/>
    <personinfo id="person_NS_e.0" depart="5.50" type="DEFAULT_PEDTYPE" speedFactor="1.25" duration="140.50" waitingTime="0.00" timeLoss="14.07" traveltime="140.50">
        <walk depart="5.50" departPos="100.00" arrival="146.00" arrivalPos="94.80" duration="140.50" routeLength="219.53" timeLoss="14.07" maxSpeed="1.74"/>
    </personinfo>
    <personinfo id="person_NW_diag.0" depart="4.50" type="DEFAULT_PEDTYPE" speedFactor="0.98" duration="156.00" waitingTime="0.00" timeLoss="16.33" traveltime="156.00">
        <walk depart="4.50" departPos="100.00" arrival="160.50" arrivalPos="93.20" duration="156.00" routeLength="190.90" timeLoss="16.33" maxSpeed="1.37"/>
    </personinfo>
    <tripinfo id="NS.6" depart="112.50" departLane="5_1_2" departPos="5.10" departSpeed="0.00" departDelay="0.00" arrival="167.50" arrivalLane="1_3_1" arrivalPos="189.60" arrivalSpeed="10.62" duration="55.00" routeLength="395.22" waitingTime="10.50" waitingCount="1" stopTime="0.00" timeLoss="18.00" rerouteNo="0" devices="tripinfo_NS.6 routing_NS.6" vType="DEFAULT_VEHTYPE" speedFactor="0.96" vaporized=""/>
    <tripinfo id="SN.4" depart="109.50" departLane="3_1_2" departPos="5.10" departSpeed="0.00" departDelay="0.41" arrival="168.50" arrivalLane="1_5_1" arrivalPos="189.60" arrivalSpeed="9.52" duration="59.00" routeLength="395.22" waitingTime="12.50" waitingCount="1" stopTime="0.00" timeLoss="19.45" rerouteNo="0" devices="tripinfo_SN.4 routing_SN.4" vType="DEFAULT_VEHTYPE" speedFactor="0.90" vaporized=""/>
    <tripinfo id="NS.5" depart="94.00" departLane="5_1_2" departPos="5.10" departSpeed="0.00" departDelay="0.25" arrival="169.50" arrivalLane="1_3_1" arrivalPos="189.60" arrivalSpeed="10.70" duration="75.50" routeLength="395.22" waitingTime="32.00" waitingCount="1" stopTime="0.00" timeLoss="40.09" rerouteNo="0" devices="tripinfo_NS.5 routing_NS.5" vType="DEFAULT_VEHTYPE" speedFactor="1.01" vaporized=""/>
    <tripinfo id="NS.7" depart="131.50" departLane="5_1_1" departPos="5.10" departSpeed="0.00" departDelay="0.25" arrival="170.00" arrivalLane="1_3_2" arrivalPos="189.60" arrivalSpeed="10.87" duration="38.50" routeLength="395.22" waitingTime="0.00" waitingCount="0" stopTime="0.00" timeLoss="3.57" rerouteNo="0" devices="tripinfo_NS.7 routing_NS.7" vType="DEFAULT_VEHTYPE" speedFactor="1.02" vaporized=""/>
    <tripinfo id="NW.2" depart="100.00" departLane="5_1_1" departPos="5.10" departSpeed="0.00" departDelay="0.00" arrival="172.00" arrivalLane="1_2_1" arrivalPos="186.40" arrivalSpeed="10.03" duration="72.00" routeLength="382.62" waitingTime="24.00" waitingCount="1" stopTime="0.00" timeLoss="34.16" rerouteNo="0" devices="tripinfo_NW.2 routing_NW.2" vType="DEFAULT_VEHTYPE" speedFactor="0.93" vaporized=""/>
    <personinfo id="person_NW_diag.1" depart="20.50" type="DEFAULT_PEDTYPE" speedFactor="1.00" duration="154.00" waitingTime="0.00" timeLoss="15.99" traveltime="154.00">
        <walk depart="20.50" departPos="100.00" arrival="174.50" arrivalPos="93.20" duration="154.00" routeLength="190.90" timeLoss="15.99" maxSpeed="1.38"/>
    </personinfo>
    <tripinfo id="SE.2" depart="109.50" departLane="3_1_1" departPos="5.10" departSpeed="0.00" departDelay="0.41" arrival="176.00" arrivalLane="1_4_1" arrivalPos="186.40" arrivalSpeed="10.66" duration="66.50" routeLength="379.93" waitingTime="23.00" waitingCount="2" stopTime="0.00" timeLoss="31.77" rerouteNo="0" devices="tripinfo_SE.2 routing_SE.2" vType="DEFAULT_VEHTYPE" speedFactor="1.00" vaporized=""/>
    <personinfo id="person_SN_w.0" depart="3.00" type="DEFAULT_PEDTYPE" speedFactor="1.00" duration="174.00" waitingTime="0.00" timeLoss="17.48" traveltime="174.00">
        <walk depart="3.00" departPos="100.00" arrival="177.00" arrivalPos="94.80" duration="174.00" routeLength="217.89" timeLoss="17.48" maxSpeed="1.39"/>
    </personinfo>
    <tripinfo id="SN.5" depart="136.50" departLane="3_1_2" departPos="5.10" departSpeed="0.00" departDelay="0.14" arrival="177.50" arrivalLane="1_5_1" arrivalPos="189.60" arrivalSpeed="10.45" duration="41.00" routeLength="395.22" waitingTime="0.00" waitingCount="0" stopTime="0.00" timeLoss="3.25" rerouteNo="0" devices="tripinfo_SN.5 routing_SN.5" vType="DEFAULT_VEHTYPE" speedFactor="0.93" vaporized=""/>
    <personinfo id="person_SW_diag.0" depart="30.00" type="DEFAULT_PEDTYPE" speedFactor="1.30" duration="151.00" waitingTime="0.00" timeLoss="23.30" traveltime="151.00">
        <walk depart="30.00" departPos="100.00" arrival="181.00" arrivalPos="93.20" duration="151.00" routeLength="230.53" timeLoss="23.30" maxSpeed="1.81"/>
    </personinfo>
    <personinfo id="person_SE_diag.0" depart="25.50" type="DEFAULT_PEDTYPE" speedFactor="0.96" duration="156.00" waitingTime="0.00" timeLoss="15.87" traveltime="156.00">
        <walk depart="25.50" departPos="100.00" arrival="181.50" arrivalPos="93.20" duration="156.00" routeLength="187.66" timeLoss="15.87" maxSpeed="1.34"/>
    </personinfo>
    <tripinfo id="NE.1" depart="150.00" departLane="5_1_3" departPos="5.10" departSpeed="0.00" departDelay="0.00" arrival="186.50" arrivalLane="1_4_2" arrivalPos="186.40" arrivalSpeed="12.98" duration="36.50" routeLength="392.89" waitingTime="0.00" waitingCount="0" stopTime="0.00" timeLoss="5.66" rerouteNo="0" devices="tripinfo_NE.1 routing_NE.1" vType="DEFAULT_VEHTYPE" speedFactor="1.16" vaporized=""/>
    <tripinfo id="NS.8" depart="150.00" departLane="5_1_1" departPos="5.10" departSpeed="0.00" departDelay="0.00" arrival="188.50" arrivalLane="1_3_1" arrivalPos="189.60" arrivalSpeed="11.36" duration="38.50" routeLength="395.22" waitingTime="0.00" waitingCount="0" stopTime="0.00" timeLoss="3.55" rerouteNo="0" devices="tripinfo_NS.8 routing_NS.8" vType="DEFAULT_VEHTYPE" speedFactor="1.02" vaporized=""/>
    <tripinfo id="NW.3" depart="152.50" departLane="5_1_1" departPos="5.10" departSpeed="0.00" departDelay="2.50" arrival="193.00" arrivalLane="1_2_1" arrivalPos="186.40" arrivalSpeed="10.52" duration="40.50" routeLength="382.62" waitingTime="0.00" waitingCount="0" stopTime="0.00" timeLoss="4.26" rerouteNo="0" devices="tripinfo_NW.3 routing_NW.3" vType="DEFAULT_VEHTYPE" speedFactor="0.96" vaporized=""/>
    <personinfo id="person_WE_s.2" depart="51.50" type="DEFAULT_PEDTYPE" speedFactor="1.20" duration="142.00" waitingTime="0.00" timeLoss="16.49" traveltime="142.00">
        <walk depart="51.50" departPos="100.00" arrival="193.50" arrivalPos="93.20" duration="142.00" routeLength="209.26" timeLoss="16.49" maxSpeed="1.67"/>
    </personinfo>
    <personinfo id="person_SE_diag.1" depart="44.00" type="DEFAULT_PEDTYPE" speedFactor="1.00" duration="150.50" waitingTime="0.00" timeLoss="14.87" traveltime="150.50">
        <walk depart="44.00" departPos="100.00" arrival="194.50" arrivalPos="93.20" duration="150.50" routeLength="187.66" timeLoss="14.87" maxSpeed="1.38"/>
    </personinfo>
    <personinfo id="person_EW_n.1" depart="17.50" type="DEFAULT_PEDTYPE" speedFactor="1.09" duration="177.50" waitingTime="0.00" timeLoss="38.54" traveltime="177.50">
        <walk depart="17.50" departPos="100.00" arrival="195.00" arrivalPos="93.20" duration="177.50" routeLength="210.56" timeLoss="38.54" maxSpeed="1.52"/>
    </personinfo>
    <personinfo id="person_NW_diag.2" depart="32.00" type="DEFAULT_PEDTYPE" speedFactor="0.92" duration="166.50" waitingTime="0.00" timeLoss="17.50" traveltime="166.50">
        <walk depart="32.00" departPos="100.00" arrival="198.50" arrivalPos="93.20" duration="166.50" routeLength="190.90" timeLoss="17.50" maxSpeed="1.28"/>
    </personinfo>
    <personinfo id="person_NW_diag.3" depart="56.00" type="DEFAULT_PEDTYPE" speedFactor="1.06" duration="146.00" waitingTime="0.00" timeLoss="16.87" traveltime="146.00">
        <walk depart="56.00" departPos="100.00" arrival="202.00" arrivalPos="93.20" duration="146.00" routeLength="190.90" timeLoss="16.87" maxSpeed="1.48"/>
    </personinfo>
    <personinfo id="person_WE_s.0" depart="2.00" type="DEFAULT_PEDTYPE" speedFactor="0.98" duration="200.00" waitingTime="0.00" timeLoss="45.50" traveltime="200.00">
        <walk depart="2.00" departPos="100.00" arrival="202.00" arrivalPos="93.20" duration="200.00" routeLength="209.26" timeLoss="45.50" maxSpeed="1.35"/>
    </personinfo>
    <personinfo id="person_WE_n.1" depart="31.50" type="DEFAULT_PEDTYPE" speedFactor="1.12" duration="170.50" waitingTime="0.00" timeLoss="26.31" traveltime="170.50">
        <walk depart="31.50" departPos="100.00" arrival="202.00" arrivalPos="93.20" duration="170.50" routeLength="224.16" timeLoss="26.31" maxSpeed="1.55"/>
    </personinfo>
    <personinfo id="person_WE_s.1" depart="43.50" type="DEFAULT_PEDTYPE" speedFactor="1.08" duration="159.00" waitingTime="0.00" timeLoss="19.84" traveltime="159.00">
        <walk depart="43.50" departPos="100.00" arrival="202.50" arrivalPos="93.20" duration="159.00" routeLength="209.26" timeLoss="19.84" maxSpeed="1.50"/>
    </personinfo>
    <personinfo id="person_WE_n.0" depart="10.00" type="DEFAULT_PEDTYPE" speedFactor="1.00" duration="193.50" waitingTime="0.00" timeLoss="31.62" traveltime="193.50">
        <walk depart="10.00" departPos="100.00" arrival="203.50" arrivalPos="93.20" duration="193.50" routeLength="224.16" timeLoss="31.62" maxSpeed="1.38"/>
    </personinfo>
    <tripinfo id="EW.1" depart="150.00" departLane="4_1_2" departPos="5.10" departSpeed="0.00" departDelay="0.00" arrival="203.50" arrivalLane="1_2_1" arrivalPos="186.40" arrivalSpeed="9.65" duration="53.50" routeLength="394.90" waitingTime="7.00" waitingCount="1" stopTime="0.00" timeLoss="13.77" rerouteNo="0" devices="tripinfo_EW.1 routing_EW.1" vType="DEFAULT_VEHTYPE" speedFactor="0.89" vaporized=""/>
    <personinfo id="person_NE_diag.1" depart="28.50" type="DEFAULT_PEDTYPE" speedFactor="1.02" duration="176.50" waitingTime="0.00" timeLoss="17.56" traveltime="176.50">
        <walk depart="28.50" departPos="100.00" arrival="205.00" arrivalPos="93.20" duration="176.50" routeLength="225.71" timeLoss="17.56" maxSpeed="1.42"/>
    </personinfo>
    <personinfo id="person_EW_n.0" depart="14.50" type="DEFAULT_PEDTYPE" speedFactor="0.95" duration="193.00" waitingTime="0.00" timeLoss="33.59" traveltime="193.00">
        <walk depart="14.50" departPos="100.00" arrival="207.50" arrivalPos="93.20" duration="193.00" routeLength="210.56" timeLoss="33.59" maxSpeed="1.32"/>
    </personinfo>
    <personinfo id="person_NW_diag.4" depart="67.00" type="DEFAULT_PEDTYPE" speedFactor="1.09" duration="141.00" waitingTime="0.00" timeLoss="15.13" traveltime="141.00">
        <walk depart="67.00" departPos="100.00" arrival="208.00" arrivalPos="93.20" duration="141.00" routeLength="190.90" timeLoss="15.13" maxSpeed="1.52"/>
    </personinfo>
    <tripinfo id="WS.2" depart="133.50" departLane="2_1_1" departPos="5.10" departSpeed="0.00" departDelay="0.17" arrival="211.00" arrivalLane="1_3_1" arrivalPos="189.60" arrivalSpeed="11.16" duration="77.50" routeLength="385.10" waitingTime="33.50" waitingCount="2" stopTime="0.00" timeLoss="42.83" rerouteNo="0" devices="tripinfo_WS.2 routing_WS.2" vType="DEFAULT_VEHTYPE" speedFactor="1.01" vaporized=""/>
    <tripinfo id="EN.1" depart="150.00" departLane="4_1_1" departPos="5.10" departSpeed="0.00" departDelay="0.00" arrival="211.50" arrivalLane="1_5_1" arrivalPos="189.60" arrivalSpeed="13.25" duration="61.50" routeLength="382.62" waitingTime="21.00" waitingCount="2" stopTime="0.00" timeLoss="31.95" rerouteNo="0" devices="tripinfo_EN.1 routing_EN.1" vType="DEFAULT_VEHTYPE" speedFactor="1.18" vaporized=""/>
    <tripinfo id="WE.3" depart="150.00" departLane="2_1_1" departPos="5.10" departSpeed="0.00" departDelay="0.00" arrival="211.50" arrivalLane="1_4_1" arrivalPos="186.40" arrivalSpeed="12.65" duration="61.50" routeLength="395.13" waitingTime="15.00" waitingCount="2" stopTime="0.00" timeLoss="31.19" rerouteNo="0" devices="tripinfo_WE.3 routing_WE.3" vType="DEFAULT_VEHTYPE" speedFactor="1.17" vaporized=""/>
    <personinfo id="person_WE_n.2" depart="31.50" type="DEFAULT_PEDTYPE" speedFactor="1.00" duration="180.50" waitingTime="0.00" timeLoss="18.77" traveltime="180.50">
        <walk depart="31.50" departPos="100.00" arrival="212.00" arrivalPos="93.20" duration="180.50" routeLength="224.16" timeLoss="18.77" maxSpeed="1.39"/>
    </personinfo>
    <personinfo id="person_NE_diag.0" depart="11.50" type="DEFAULT_PEDTYPE" speedFactor="0.89" duration="203.00" waitingTime="0.00" timeLoss="20.42" traveltime="203.00">
        <walk depart="11.50" departPos="100.00" arrival="214.50" arrivalPos="93.20" duration="203.00" routeLength="225.71" timeLoss="20.42" maxSpeed="1.24"/>
    </personinfo>
    <personinfo id="person_EW_n.2" depart="18.00" type="DEFAULT_PEDTYPE" speedFactor="0.86" duration="200.00" waitingTime="0.00" timeLoss="23.88" traveltime="200.00">
        <walk depart="18.00" departPos="100.00" arrival="218.00" arrivalPos="93.20" duration="200.00" routeLength="210.56" timeLoss="23.88" maxSpeed="1.20"/>
    </personinfo>
    <personinfo id="person_WE_n.3" depart="37.00" type="DEFAULT_PEDTYPE" speedFactor="0.99" duration="182.50" waitingTime="0.00" timeLoss="18.98" traveltime="182.50">
        <walk depart="37.00" departPos="100.00" arrival="219.50" arrivalPos="93.20" duration="182.50" routeLength="224.16" timeLoss="18.98" maxSpeed="1.37"/>
    </personinfo>
    <personinfo id="person_NS_e.2" depart="45.50" type="DEFAULT_PEDTYPE" speedFactor="1.13" duration="178.50" waitingTime="0.00" timeLoss="38.31" traveltime="178.50">
        <walk depart="45.50" departPos="100.00" arrival="224.00" arrivalPos="94.80" duration="178.50" routeLength="219.53" timeLoss="38.31" maxSpeed="1.57"/>
    </personinfo>
    <personinfo id="person_NW_diag.5" depart="88.00" type="DEFAULT_PEDTYPE" speedFactor="1.11" duration="139.00" waitingTime="0.00" timeLoss="15.14" traveltime="139.00">
        <walk depart="88.00" departPos="100.00" arrival="227.00" arrivalPos="93.20" duration="139.00" routeLength="190.90" timeLoss="15.14" maxSpeed="1.54"/>
    </personinfo>
    <personinfo id="person_SN_w.1" depart="52.50" type="DEFAULT_PEDTYPE" speedFactor="1.00" duration="178.50" waitingTime="0.00" timeLoss="22.06" traveltime="178.50">
        <walk depart="52.50" departPos="100.00" arrival="231.00" arrivalPos="94.80" duration="178.50" routeLength="217.89" timeLoss="22.06" maxSpeed="1.39"/>
    </personinfo>
    <personinfo id="person_SN_e.0" depart="43.00" type="DEFAULT_PEDTYPE" speedFactor="1.03" duration="191.50" waitingTime="0.00" timeLoss="45.31" traveltime="191.50">
        <walk depart="43.00" departPos="100.00" arrival="234.50" arrivalPos="94.80" duration="191.50" routeLength="209.13" timeLoss="45.31" maxSpeed="1.43"/>
    </personinfo>
    <personinfo id="person_EW_n.3" depart="50.50" type="DEFAULT_PEDTYPE" speedFactor="0.91" duration="186.00" waitingTime="0.00" timeLoss="18.76" traveltime="186.00">
        <walk depart="50.50" departPos="100.00" arrival="236.50" arrivalPos="93.20" duration="186.00" routeLength="210.56" timeLoss="18.76" maxSpeed="1.26"/>
    </personinfo>
    <tripinfo id="NS.9" depart="169.00" departLane="5_1_2" departPos="5.10" departSpeed="0.00" departDelay="0.25" arrival="237.00" arrivalLane="1_3_1" arrivalPos="189.60" arrivalSpeed="10.80" duration="68.00" routeLength="395.22" waitingTime="25.00" waitingCount="1" stopTime="0.00" timeLoss="32.28" rerouteNo="0" devices="tripinfo_NS.9 routing_NS.9" vType="DEFAULT_VEHTYPE" speedFactor="1.00" vaporized=""/>
    <personinfo id="person_NS_e.3" depart="58.50" type="DEFAULT_PEDTYPE" speedFactor="0.98" duration="179.00" waitingTime="0.00" timeLoss="18.34" traveltime="179.00">
        <walk depart="58.50" departPos="100.00" arrival="237.50" arrivalPos="94.80" duration="179.00" routeLength="219.53" timeLoss="18.34" maxSpeed="1.37"/>
    </personinfo>
    <tripinfo id="NS.10" depart="187.50" departLane="5_1_2" departPos="5.10" departSpeed="0.00" departDelay="0.00" arrival="237.50" arrivalLane="1_3_1" arrivalPos="189.60" arrivalSpeed="10.58" duration="50.00" routeLength="395.22" waitingTime="5.00" waitingCount="1" stopTime="0.00" timeLoss="12.48" rerouteNo="0" devices="tripinfo_NS.10 routing_NS.10" vType="DEFAULT_VEHTYPE" speedFactor="0.95" vaporized=""/>
    <tripinfo id="SN.7" depart="191.00" departLane="3_1_2" departPos="5.10" departSpeed="0.00" departDelay="0.09" arrival="238.50" arrivalLane="1_5_2" arrivalPos="189.60" arrivalSpeed="10.93" duration="47.50" routeLength="395.22" waitingTime="2.00" waitingCount="1" stopTime="0.00" timeLoss="11.49" rerouteNo="0" devices="tripinfo_SN.7 routing_SN.7" vType="DEFAULT_VEHTYPE" speedFactor="0.98" vaporized=""/>
    <tripinfo id="SN.6" depart="164.00" departLane="3_1_2" departPos="5.10" departSpeed="0.00" departDelay="0.36" arrival="239.50" arrivalLane="1_5_1" arrivalPos="189.60" arrivalSpeed="9.33" duration="75.50" routeLength="395.22" waitingTime="27.00" waitingCount="1" stopTime="0.00" timeLoss="34.47" rerouteNo="0" devices="tripinfo_SN.6 routing_SN.6" vType="DEFAULT_VEHTYPE" speedFactor="0.86" vaporized=""/>
    <personinfo id="person_NW_diag.7" depart="94.00" type="DEFAULT_PEDTYPE" speedFactor="1.04" duration="147.50" waitingTime="0.00" timeLoss="15.41" traveltime="147.50">
        <walk depart="94.00" departPos="100.00" arrival="241.50" arrivalPos="93.20" duration="147.50" routeLength="190.90" timeLoss="15.41" maxSpeed="1.45"/>
    </personinfo>
    <tripinfo id="NS.11" depart="206.50" departLane="5_1_2" departPos="5.10" departSpeed="0.00" departDelay="0.25" arrival="241.50" arrivalLane="1_3_1" arrivalPos="189.60" arrivalSpeed="12.66" duration="35.00" routeLength="395.22" waitingTime="0.00" waitingCount="0" stopTime="0.00" timeLoss="3.68" rerouteNo="0" devices="tripinfo_NS.11 routing_NS.11" vType="DEFAULT_VEHTYPE" speedFactor="1.13" vaporized=""/>
    <personinfo id="person_NW_diag.9" depart="107.50" type="DEFAULT_PEDTYPE" speedFactor="1.15" duration="135.50" waitingTime="0.00" timeLoss="16.18" traveltime="135.50">
        <walk depart="107.50" departPos="100.00" arrival="243.00" arrivalPos="93.20" duration="135.50" routeLength="190.90" timeLoss="16.18" maxSpeed="1.60"/>
    </personinfo>
    <personinfo id="person_NS_e.1" depart="28.50" type="DEFAULT_PEDTYPE" speedFactor="0.91" duration="215.00" waitingTime="0.00" timeLoss="42.14" traveltime="215.00">
        <walk depart="28.50" departPos="100.00" arrival="243.50" arrivalPos="94.80" duration="215.00" routeLength="219.53" timeLoss="42.14" maxSpeed="1.27"/>
    </personinfo>