<?xml version="1.0" encoding="UTF-8"?>

<!-- generated on 2025-03-17 18:15:26 by Eclipse SUMO GUI Version 1.22.0
<sumoConfiguration xmlns:xsi="http://www.w3.org/2001/XMLSchema-instance" xsi:noNamespaceSchemaLocation="http://sumo.dlr.de/xsd/sumoConfiguration.xsd">

    <input>
        <net-file value="C:\Users\chris\PycharmProjects\UW_CET593_project2\environment/network_model/UW_intersection_pedestrian_X.net.xml"/>
        <route-files value="C:\Users\chris\PycharmProjects\UW_CET593_project2\environment/network_model/UW_IntersectionDecreaseDemand.rou.xml"/>
        <additional-files value="C:\Users\chris\PycharmProjects\UW_CET593_project2\environment/network_model/UW_intersection_Concurrent.add.xml"/>
    </input>

    <output>
        <queue-output value="C:\Users\chris\PycharmProjects\UW_CET593_project2\environment/simulation_data/UW_intersection/queues_multi_scale_symmetric_pene_80.xml"/>
        <tripinfo-output value="C:\Users\chris\PycharmProjects\UW_CET593_project2\environment/simulation_data/UW_intersection/tripinfo_multi_scale_symmetric_pene_80.xml"/>
    </output>

    <time>
        <begin value="0"/>
        <step-length value="0.5"/>
    </time>

    <processing>
        <waiting-time-memory value="1000"/>
    </processing>

    <report>
        <verbose value="true"/>
        <no-step-log value="true"/>
    </report>

    <traci_server>
        <remote-port value="61870"/>
    </traci_server>

    <gui_only>
        <start value="true"/>
    </gui_only>

</sumoConfiguration>
-->

<tripinfos xmlns:xsi="http://www.w3.org/2001/XMLSchema-instance" xsi:noNamespaceSchemaLocation="http://sumo.dlr.de/xsd/tripinfo_file.xsd">
    <tripinfo id="NS.0" depart="0.00" departLane="5_1_1" departPos="5.10" departSpeed="0.00" departDelay="0.00" arrival="37.00" arrivalLane="1_3_1" arrivalPos="189.60" arrivalSpeed="12.43" duration="37.00" routeLength="395.22" waitingTime="0.00" waitingCount="0" stopTime="0.00" timeLoss="4.93" rerouteNo="0" devices="tripinfo_NS.0 routing_NS.0" vType="DEFAULT_VEHTYPE" speedFactor="1.11" vaporized=""/>
    <tripinfo id="NE.0" depart="0.00" departLane="5_1_3" departPos="5.10" departSpeed="0.00" departDelay="0.00" arrival="37.50" arrivalLane="1_4_2" arrivalPos="186.40" arrivalSpeed="13.00" duration="37.50" routeLength="392.89" waitingTime="0.00" waitingCount="0" stopTime="0.00" timeLoss="8.64" rerouteNo="0" devices="tripinfo_NE.0 routing_NE.0" vType="DEFAULT_VEHTYPE" speedFactor="1.24" vaporized=""/>
    <tripinfo id="NW.0" depart="2.50" departLane="5_1_1" departPos="5.10" departSpeed="0.00" departDelay="2.50" arrival="40.50" arrivalLane="1_2_1" arrivalPos="186.40" arrivalSpeed="12.23" duration="38.00" routeLength="382.62" waitingTime="0.00" waitingCount="0" stopTime="0.00" timeLoss="6.19" rerouteNo="0" devices="tripinfo_NW.0 routing_NW.0" vType="DEFAULT_VEHTYPE" speedFactor="1.09" vaporized=""/>
    <tripinfo id="EN.0" depart="0.00" departLane="4_1_1" departPos="5.10" departSpeed="0.00" departDelay="0.00" arrival="41.50" arrivalLane="1_5_1" arrivalPos="189.60" arrivalSpeed="11.92" duration="41.50" routeLength="382.62" waitingTime="0.00" waitingCount="0" stopTime="0.00" timeLoss="8.54" rerouteNo="0" devices="tripinfo_EN.0 routing_EN.0" vType="DEFAULT_VEHTYPE" speedFactor="1.06" vaporized=""/>
    <tripinfo id="WE.0" depart="0.00" departLane="2_1_1" departPos="5.10" departSpeed="0.00" departDelay="0.00" arrival="55.50" arrivalLane="1_4_1" arrivalPos="186.40" arrivalSpeed="10.86" duration="55.50" routeLength="395.13" waitingTime="8.00" waitingCount="1" stopTime="0.00" timeLoss="18.75" rerouteNo="0" devices="tripinfo_WE.0 routing_WE.0" vType="DEFAULT_VEHTYPE" speedFactor="0.97" vaporized=""/>
    <tripinfo id="WN.0" depart="2.50" departLane="2_1_1" departPos="5.10" departSpeed="0.00" departDelay="2.50" arrival="56.50" arrivalLane="1_5_2" arrivalPos="189.60" arrivalSpeed="12.29" duration="54.00" routeLength="392.90" waitingTime="6.50" waitingCount="1" stopTime="0.00" timeLoss="23.29" rerouteNo="0" devices="tripinfo_WN.0 routing_WN.0" vType="DEFAULT_VEHTYPE" speedFactor="1.15" vaporized=""/>
    <tripinfo id="ES.0" depart="0.00" departLane="4_1_2" departPos="5.10" departSpeed="0.00" departDelay="0.00" arrival="58.00" arrivalLane="1_3_2" arrivalPos="189.60" arrivalSpeed="11.37" duration="58.00" routeLength="392.89" waitingTime="11.00" waitingCount="2" stopTime="0.00" timeLoss="22.97" rerouteNo="0" devices="tripinfo_ES.0 routing_ES.0" vType="DEFAULT_VEHTYPE" speedFactor="1.02" vaporized=""/>
    <tripinfo id="WS.0" depart="5.00" departLane="2_1_1" departPos="5.10" departSpeed="0.00" departDelay="5.00" arrival="60.50" arrivalLane="1_3_1" arrivalPos="189.60" arrivalSpeed="10.21" duration="55.50" routeLength="385.10" waitingTime="2.50" waitingCount="1" stopTime="0.00" timeLoss="16.89" rerouteNo="0" devices="tripinfo_WS.0 routing_WS.0" vType="DEFAULT_VEHTYPE" speedFactor="0.91" vaporized=""/>
    <tripinfo id="EW.0" depart="2.50" departLane="4_1_2" departPos="5.10" departSpeed="0.00" departDelay="2.50" arrival="61.50" arrivalLane="1_2_1" arrivalPos="186.40" arrivalSpeed="10.71" duration="59.00" routeLength="394.90" waitingTime="8.00" waitingCount="2" stopTime="0.00" timeLoss="22.35" rerouteNo="0" devices="tripinfo_EW.0 routing_EW.0" vType="DEFAULT_VEHTYPE" speedFactor="0.97" vaporized=""/>
    <tripinfo id="SE.0" depart="0.00" departLane="3_1_1" departPos="5.10" departSpeed="0.00" departDelay="0.00" arrival="70.00" arrivalLane="1_4_1" arrivalPos="186.40" arrivalSpeed="11.14" duration="70.00" routeLength="379.93" waitingTime="30.50" waitingCount="1" stopTime="0.00" timeLoss="35.21" rerouteNo="0" devices="tripinfo_SE.0 routing_SE.0" vType="DEFAULT_VEHTYPE" speedFactor="0.99" vaporized=""/>
    <tripinfo id="SN.0" depart="0.00" departLane="3_1_2" departPos="5.10" departSpeed="0.00" departDelay="0.00" arrival="71.00" arrivalLane="1_5_2" arrivalPos="189.60" arrivalSpeed="11.65" duration="71.00" routeLength="395.22" waitingTime="31.00" waitingCount="1" stopTime="0.00" timeLoss="36.51" rerouteNo="0" devices="tripinfo_SN.0 routing_SN.0" vType="DEFAULT_VEHTYPE" speedFactor="1.04" vaporized=""/>
    <tripinfo id="NS.1" depart="23.50" departLane="5_1_1" departPos="5.10" departSpeed="0.00" departDelay="0.06" arrival="72.50" arrivalLane="1_3_1" arrivalPos="189.60" arrivalSpeed="10.73" duration="49.00" routeLength="395.22" waitingTime="4.50" waitingCount="2" stopTime="0.00" timeLoss="11.72" rerouteNo="0" devices="tripinfo_NS.1 routing_NS.1" vType="DEFAULT_VEHTYPE" speedFactor="0.96" vaporized=""/>
    <tripinfo id="SN.1" depart="34.50" departLane="3_1_1" departPos="5.10" departSpeed="0.00" departDelay="0.41" arrival="73.00" arrivalLane="1_5_1" arrivalPos="189.60" arrivalSpeed="11.51" duration="38.50" routeLength="395.22" waitingTime="0.00" waitingCount="0" stopTime="0.00" timeLoss="4.41" rerouteNo="0" devices="tripinfo_SN.1 routing_SN.1" vType="DEFAULT_VEHTYPE" speedFactor="1.04" vaporized=""/>
    <tripinfo id="NS.2" depart="47.00" departLane="5_1_2" departPos="5.10" departSpeed="0.00" departDelay="0.12" arrival="89.50" arrivalLane="1_3_1" arrivalPos="189.60" arrivalSpeed="9.91" duration="42.50" routeLength="395.22" waitingTime="0.00" waitingCount="0" stopTime="0.00" timeLoss="2.24" rerouteNo="0" devices="tripinfo_NS.2 routing_NS.2" vType="DEFAULT_VEHTYPE" speedFactor="0.88" vaporized=""/>
    <tripinfo id="NW.1" depart="62.50" departLane="5_1_1" departPos="5.10" departSpeed="0.00" departDelay="0.00" arrival="99.50" arrivalLane="1_2_1" arrivalPos="186.40" arrivalSpeed="12.27" duration="37.00" routeLength="382.62" waitingTime="0.00" waitingCount="0" stopTime="0.00" timeLoss="5.27" rerouteNo="0" devices="tripinfo_NW.1 routing_NW.1" vType="DEFAULT_VEHTYPE" speedFactor="1.10" vaporized=""/>
    <tripinfo id="SN.2" depart="68.50" departLane="3_1_2" departPos="5.10" departSpeed="0.00" departDelay="0.32" arrival="106.50" arrivalLane="1_5_1" arrivalPos="189.60" arrivalSpeed="11.34" duration="38.00" routeLength="395.22" waitingTime="0.00" waitingCount="0" stopTime="0.00" timeLoss="2.71" rerouteNo="0" devices="tripinfo_SN.2 routing_SN.2" vType="DEFAULT_VEHTYPE" speedFactor="1.01" vaporized=""/>
    <tripinfo id="SE.1" depart="68.50" departLane="3_1_1" departPos="5.10" departSpeed="0.00" departDelay="0.32" arrival="108.00" arrivalLane="1_4_1" arrivalPos="186.40" arrivalSpeed="10.65" duration="39.50" routeLength="379.93" waitingTime="0.00" waitingCount="0" stopTime="0.00" timeLoss="2.74" rerouteNo="0" devices="tripinfo_SE.1 routing_SE.1" vType="DEFAULT_VEHTYPE" speedFactor="0.95" vaporized=""/>
    <tripinfo id="NS.3" depart="70.50" departLane="5_1_2" departPos="5.10" departSpeed="0.00" departDelay="0.19" arrival="110.50" arrivalLane="1_3_1" arrivalPos="189.60" arrivalSpeed="10.62" duration="40.00" routeLength="395.22" waitingTime="0.00" waitingCount="0" stopTime="0.00" timeLoss="3.33" rerouteNo="0" devices="tripinfo_NS.3 routing_NS.3" vType="DEFAULT_VEHTYPE" speedFactor="0.97" vaporized=""/>
    <tripinfo id="WE.1" depart="62.50" departLane="2_1_1" departPos="5.10" departSpeed="0.00" departDelay="0.00" arrival="117.00" arrivalLane="1_4_1" arrivalPos="186.40" arrivalSpeed="12.63" duration="54.50" routeLength="395.13" waitingTime="15.00" waitingCount="1" stopTime="0.00" timeLoss="22.91" rerouteNo="0" devices="tripinfo_WE.1 routing_WE.1" vType="DEFAULT_VEHTYPE" speedFactor="1.13" vaporized=""/>
    <tripinfo id="WS.1" depart="83.50" departLane="2_1_1" departPos="5.10" departSpeed="0.00" departDelay="0.17" arrival="123.00" arrivalLane="1_3_1" arrivalPos="189.60" arrivalSpeed="10.67" duration="39.50" routeLength="385.10" waitingTime="0.00" waitingCount="0" stopTime="0.00" timeLoss="4.01" rerouteNo="0" devices="tripinfo_WS.1 routing_WS.1" vType="DEFAULT_VEHTYPE" speedFactor="0.99" vaporized=""/>
    <tripinfo id="NS.4" depart="94.00" departLane="5_1_1" departPos="5.10" departSpeed="0.00" departDelay="0.25" arrival="134.00" arrivalLane="1_3_1" arrivalPos="189.60" arrivalSpeed="11.47" duration="40.00" routeLength="395.22" waitingTime="0.00" waitingCount="0" stopTime="0.00" timeLoss="5.39" rerouteNo="0" devices="tripinfo_NS.4 routing_NS.4" vType="DEFAULT_VEHTYPE" speedFactor="1.02" vaporized=""/>
    <tripinfo id="SW.0" depart="0.00" departLane="3_1_3" departPos="5.10" departSpeed="0.00" departDelay="0.00" arrival="134.50" arrivalLane="1_2_1" arrivalPos="186.40" arrivalSpeed="12.78" duration="134.50" routeLength="392.89" waitingTime="95.00" waitingCount="1" stopTime="0.00" timeLoss="103.26" rerouteNo="0" devices="tripinfo_SW.0 routing_SW.0" vType="DEFAULT_VEHTYPE" speedFactor="1.14" vaporized=""/>
    <tripinfo id="SN.3" depart="102.50" departLane="3_1_1" departPos="5.10" departSpeed="0.00" departDelay="0.23" arrival="147.50" arrivalLane="1_5_1" arrivalPos="189.60" arrivalSpeed="11.32" duration="45.00" routeLength="395.22" waitingTime="2.50" waitingCount="1" stopTime="0.00" timeLoss="9.72" rerouteNo="0" devices="tripinfo_SN.3 routing_SN.3" vType="DEFAULT_VEHTYPE" speedFactor="1.01" vaporized=""/>
    <tripinfo id="NS.5" depart="117.50" departLane="5_1_1" departPos="5.10" departSpeed="0.00" departDelay="0.31" arrival="156.50" arrivalLane="1_3_1" arrivalPos="189.60" arrivalSpeed="10.89" duration="39.00" routeLength="395.22" waitingTime="0.00" waitingCount="0" stopTime="0.00" timeLoss="2.32" rerouteNo="0" devices="tripinfo_NS.5 routing_NS.5" vType="DEFAULT_VEHTYPE" speedFactor="0.97" vaporized=""/>
    <tripinfo id="NW.2" depart="125.00" departLane="5_1_1" departPos="5.10" departSpeed="0.00" departDelay="0.00" arrival="162.50" arrivalLane="1_2_1" arrivalPos="186.40" arrivalSpeed="11.65" duration="37.50" routeLength="382.62" waitingTime="0.00" waitingCount="0" stopTime="0.00" timeLoss="3.82" rerouteNo="0" devices="tripinfo_NW.2 routing_NW.2" vType="DEFAULT_VEHTYPE" speedFactor="1.04" vaporized=""/>
    <personinfo id="person_SE_diag.0" depart="2.00" type="DEFAULT_PEDTYPE" speedFactor="0.90" duration="166.00" waitingTime="0.00" timeLoss="16.12" traveltime="166.00">
        <walk depart="2.00" departPos="100.00" arrival="168.00" arrivalPos="93.20" duration="166.00" routeLength="187.66" timeLoss="16.12" maxSpeed="1.25"/>
    </personinfo>
    <personinfo id="person_EW_n.0" depart="15.50" type="DEFAULT_PEDTYPE" speedFactor="1.17" duration="162.00" waitingTime="0.00" timeLoss="32.55" traveltime="162.00">
        <walk depart="15.50" departPos="100.00" arrival="177.50" arrivalPos="93.20" duration="162.00" routeLength="210.56" timeLoss="32.55" maxSpeed="1.63"/>
    </personinfo>
    <tripinfo id="SE.2" depart="136.50" departLane="3_1_1" departPos="5.10" departSpeed="0.00" departDelay="0.14" arrival="179.00" arrivalLane="1_4_1" arrivalPos="186.40" arrivalSpeed="12.45" duration="42.50" routeLength="379.93" waitingTime="2.50" waitingCount="2" stopTime="0.00" timeLoss="11.47" rerouteNo="0" devices="tripinfo_SE.2 routing_SE.2" vType="DEFAULT_VEHTYPE" speedFactor="1.11" vaporized=""/>
    <tripinfo id="SN.4" depart="136.50" departLane="3_1_2" departPos="5.10" departSpeed="0.00" departDelay="0.14" arrival="181.00" arrivalLane="1_5_2" arrivalPos="189.60" arrivalSpeed="10.44" duration="44.50" routeLength="395.22" waitingTime="1.00" waitingCount="1" stopTime="0.00" timeLoss="6.18" rerouteNo="0" devices="tripinfo_SN.4 routing_SN.4" vType="DEFAULT_VEHTYPE" speedFactor="0.93" vaporized=""/>
    <personinfo id="person_WE_n.0" depart="12.50" type="DEFAULT_PEDTYPE" speedFactor="1.09" duration="170.00" waitingTime="0.00" timeLoss="22.19" traveltime="170.00">
        <walk depart="12.50" departPos="100.00" arrival="182.50" arrivalPos="93.20" duration="170.00" routeLength="224.16" timeLoss="22.19" maxSpeed="1.52"/>
    </personinfo>
    <tripinfo id="NS.6" depart="141.00" departLane="5_1_2" departPos="5.10" departSpeed="0.00" departDelay="0.37" arrival="185.00" arrivalLane="1_3_1" arrivalPos="189.60" arrivalSpeed="9.41" duration="44.00" routeLength="395.22" waitingTime="0.00" waitingCount="0" stopTime="0.00" timeLoss="3.53" rerouteNo="0" devices="tripinfo_NS.6 routing_NS.6" vType="DEFAULT_VEHTYPE" speedFactor="0.88" vaporized=""/>
    <tripinfo id="WE.2" depart="125.00" departLane="2_1_1" departPos="5.10" departSpeed="0.00" departDelay="0.00" arrival="191.00" arrivalLane="1_4_1" arrivalPos="186.40" arrivalSpeed="12.38" duration="66.00" routeLength="395.13" waitingTime="27.00" waitingCount="1" stopTime="0.00" timeLoss="34.61" rerouteNo="0" devices="tripinfo_WE.2 routing_WE.2" vType="DEFAULT_VEHTYPE" speedFactor="1.14" vaporized=""/>
    <personinfo id="person_EW_n.1" depart="29.00" type="DEFAULT_PEDTYPE" speedFactor="1.04" duration="162.50" waitingTime="0.00" timeLoss="16.73" traveltime="162.50">
        <walk depart="29.00" departPos="100.00" arrival="191.50" arrivalPos="93.20" duration="162.50" routeLength="210.56" timeLoss="16.73" maxSpeed="1.44"/>
    </personinfo>
    <personinfo id="person_WE_s.0" depart="2.00" type="DEFAULT_PEDTYPE" speedFactor="0.98" duration="189.50" waitingTime="0.00" timeLoss="35.00" traveltime="189.50">
        <walk depart="2.00" departPos="100.00" arrival="191.50" arrivalPos="93.20" duration="189.50" routeLength="209.26" timeLoss="35.00" maxSpeed="1.35"/>
    </personinfo>
    <personinfo id="person_NE_diag.0" depart="21.50" type="DEFAULT_PEDTYPE" speedFactor="1.00" duration="182.50" waitingTime="0.00" timeLoss="22.37" traveltime="182.50">
        <walk depart="21.50" departPos="100.00" arrival="204.00" arrivalPos="93.20" duration="182.50" routeLength="223.02" timeLoss="22.37" maxSpeed="1.39"/>
    </personinfo>
    <tripinfo id="WS.2" depart="167.00" departLane="2_1_1" departPos="5.10" departSpeed="0.00" departDelay="0.33" arrival="206.00" arrivalLane="1_3_1" arrivalPos="189.60" arrivalSpeed="10.97" duration="39.00" routeLength="385.10" waitingTime="0.00" waitingCount="0" stopTime="0.00" timeLoss="3.22" rerouteNo="0" devices="tripinfo_WS.2 routing_WS.2" vType="DEFAULT_VEHTYPE" speedFactor="0.98" vaporized=""/>
    <personinfo id="person_NS_e.0" depart="12.50" type="DEFAULT_PEDTYPE" speedFactor="0.96" duration="195.50" waitingTime="0.00" timeLoss="30.11" traveltime="195.50">
        <walk depart="12.50" departPos="100.00" arrival="208.00" arrivalPos="94.80" duration="195.50" routeLength="219.53" timeLoss="30.11" maxSpeed="1.33"/>
    </personinfo>
    <personinfo id="person_SE_diag.1" depart="66.50" type="DEFAULT_PEDTYPE" speedFactor="1.00" duration="151.00" waitingTime="0.00" timeLoss="15.73" traveltime="151.00">
        <walk depart="66.50" departPos="100.00" arrival="217.50" arrivalPos="93.20" duration="151.00" routeLength="187.66" timeLoss="15.73" maxSpeed="1.39"/>
    </personinfo>
    <personinfo id="person_NW_diag.0" depart="58.50" type="DEFAULT_PEDTYPE" speedFactor="0.93" duration="165.00" waitingTime="0.00" timeLoss="16.95" traveltime="165.00">
        <walk depart="58.50" departPos="100.00" arrival="223.50" arrivalPos="93.20" duration="165.00" routeLength="190.90" timeLoss="16.95" maxSpeed="1.29"/>
    </personinfo>
    <tripinfo id="EW.1" depart="187.50" departLane="4_1_2" departPos="5.10" departSpeed="0.00" departDelay="0.00" arrival="226.50" arrivalLane="1_2_1" arrivalPos="186.40" arrivalSpeed="10.80" duration="39.00" routeLength="394.90" waitingTime="0.00" waitingCount="0" stopTime="0.00" timeLoss="2.20" rerouteNo="0" devices="tripinfo_EW.1 routing_EW.1" vType="DEFAULT_VEHTYPE" speedFactor="0.96" vaporized=""/>
    <tripinfo id="WE.3" depart="187.50" departLane="2_1_1" departPos="5.10" departSpeed="0.00" departDelay="0.00" arrival="233.50" arrivalLane="1_4_1" arrivalPos="186.40" arrivalSpeed="8.99" duration="46.00" routeLength="395.13" waitingTime="0.00" waitingCount="0" stopTime="0.00" timeLoss="3.62" rerouteNo="0" devices="tripinfo_WE.3 routing_WE.3" vType="DEFAULT_VEHTYPE" speedFactor="0.84" vaporized=""/>
    <tripinfo id="NS.7" depart="164.50" departLane="5_1_1" departPos="5.10" departSpeed="0.00" departDelay="0.43" arrival="239.00" arrivalLane="1_3_1" arrivalPos="189.60" arrivalSpeed="11.06" duration="74.50" routeLength="395.22" waitingTime="29.50" waitingCount="1" stopTime="0.00" timeLoss="38.29" rerouteNo="0" devices="tripinfo_NS.7 routing_NS.7" vType="DEFAULT_VEHTYPE" speedFactor="0.99" vaporized=""/>
    <tripinfo id="NW.3" depart="187.50" departLane="5_1_1" departPos="5.10" departSpeed="0.00" departDelay="0.00" arrival="239.50" arrivalLane="1_2_1" arrivalPos="186.40" arrivalSpeed="11.36" duration="52.00" routeLength="382.62" waitingTime="6.00" waitingCount="1" stopTime="0.00" timeLoss="17.38" rerouteNo="0" devices="tripinfo_NW.3 routing_NW.3" vType="DEFAULT_VEHTYPE" speedFactor="1.01" vaporized=""/>
    <tripinfo id="SN.5" depart="170.50" departLane="3_1_1" departPos="5.10" departSpeed="0.00" departDelay="0.05" arrival="241.00" arrivalLane="1_5_1" arrivalPos="189.60" arrivalSpeed="9.85" duration="70.50" routeLength="395.22" waitingTime="24.00" waitingCount="1" stopTime="0.00" timeLoss="30.02" rerouteNo="0" devices="tripinfo_SN.5 routing_SN.5" vType="DEFAULT_VEHTYPE" speedFactor="0.88" vaporized=""/>
    <tripinfo id="NE.1" depart="187.50" departLane="5_1_3" departPos="5.10" departSpeed="0.00" departDelay="0.00" arrival="243.00" arrivalLane="1_4_2" arrivalPos="186.40" arrivalSpeed="14.33" duration="55.50" routeLength="392.89" waitingTime="13.50" waitingCount="3" stopTime="0.00" timeLoss="28.15" rerouteNo="0" devices="tripinfo_NE.1 routing_NE.1" vType="DEFAULT_VEHTYPE" speedFactor="1.30" vaporized=""/>
    <tripinfo id="NS.8" depart="188.00" departLane="5_1_2" departPos="5.10" departSpeed="0.00" departDelay="0.50" arrival="244.00" arrivalLane="1_3_1" arrivalPos="189.60" arrivalSpeed="8.43" duration="56.00" routeLength="395.22" waitingTime="2.00" waitingCount="1" stopTime="0.00" timeLoss="9.11" rerouteNo="0" devices="tripinfo_NS.8 routing_NS.8" vType="DEFAULT_VEHTYPE" speedFactor="0.75" vaporized=""/>
    <personinfo id="person_WE_s.2" depart="64.50" type="DEFAULT_PEDTYPE" speedFactor="1.20" duration="181.50" waitingTime="0.00" timeLoss="55.99" traveltime="181.50">
        <walk depart="64.50" departPos="100.00" arrival="246.00" arrivalPos="93.20" duration="181.50" routeLength="209.26" timeLoss="55.99" maxSpeed="1.67"/>
    </personinfo>
    <tripinfo id="NS.9" depart="211.00" departLane="5_1_1" departPos="5.10" departSpeed="0.00" departDelay="0.06" arrival="251.00" arrivalLane="1_3_1" arrivalPos="189.60" arrivalSpeed="10.72" duration="40.00" routeLength="395.22" waitingTime="0.00" waitingCount="0" stopTime="0.00" timeLoss="2.77" rerouteNo="0" devices="tripinfo_NS.9 routing_NS.9" vType="DEFAULT_VEHTYPE" speedFactor="0.96" vaporized=""/>
    <tripinfo id="EN.1" depart="187.50" departLane="4_1_1" departPos="5.10" departSpeed="0.00" departDelay="0.00" arrival="254.50" arrivalLane="1_5_1" arrivalPos="189.60" arrivalSpeed="7.94" duration="67.00" routeLength="382.62" waitingTime="13.50" waitingCount="1" stopTime="0.00" timeLoss="17.89" rerouteNo="0" devices="tripinfo_EN.1 routing_EN.1" vType="DEFAULT_VEHTYPE" speedFactor="0.71" vaporized=""/>
    <personinfo id="person_WE_s.1" depart="54.50" type="DEFAULT_PEDTYPE" speedFactor="1.08" duration="201.00" waitingTime="0.00" timeLoss="61.84" traveltime="201.00">
        <walk depart="54.50" departPos="100.00" arrival="255.50" arrivalPos="93.20" duration="201.00" routeLength="209.26" timeLoss="61.84" maxSpeed="1.50"/>
    </personinfo>
    <personinfo id="person_WE_n.2" depart="80.00" type="DEFAULT_PEDTYPE" speedFactor="1.09" duration="177.00" waitingTime="0.00" timeLoss="28.66" traveltime="177.00">
        <walk depart="80.00" departPos="100.00" arrival="257.00" arrivalPos="93.20" duration="177.00" routeLength="224.16" timeLoss="28.66" maxSpeed="1.51"/>
    </personinfo>
    <personinfo id="person_WE_s.3" depart="77.50" type="DEFAULT_PEDTYPE" speedFactor="1.05" duration="181.50" waitingTime="0.00" timeLoss="37.43" traveltime="181.50">
        <walk depart="77.50" departPos="100.00" arrival="259.00" arrivalPos="93.20" duration="181.50" routeLength="209.26" timeLoss="37.43" maxSpeed="1.45"/>
    </personinfo>
    <personinfo id="person_SE_diag.2" depart="126.50" type="DEFAULT_PEDTYPE" speedFactor="1.15" duration="132.50" waitingTime="0.00" timeLoss="14.86" traveltime="132.50">
        <walk depart="126.50" departPos="100.00" arrival="259.00" arrivalPos="93.20" duration="132.50" routeLength="187.66" timeLoss="14.86" maxSpeed="1.60"/>
    </personinfo>
    <tripinfo id="SN.6" depart="205.00" departLane="3_1_2" departPos="5.10" departSpeed="0.00" departDelay="0.45" arrival="260.00" arrivalLane="1_5_1" arrivalPos="189.60" arrivalSpeed="11.70" duration="55.00" routeLength="395.22" waitingTime="12.00" waitingCount="1" stopTime="0.00" timeLoss="20.82" rerouteNo="0" devices="tripinfo_SN.6 routing_SN.6" vType="DEFAULT_VEHTYPE" speedFactor="1.04" vaporized=""/>
    <personinfo id="person_NW_diag.1" depart="89.50" type="DEFAULT_PEDTYPE" speedFactor="0.88" duration="174.00" waitingTime="0.00" timeLoss="17.56" traveltime="174.00">
        <walk depart="89.50" departPos="100.00" arrival="263.50" arrivalPos="93.20" duration="174.00" routeLength="190.90" timeLoss="17.56" maxSpeed="1.22"/>
    </personinfo>
    <personinfo id="person_EW_n.5" depart="88.00" type="DEFAULT_PEDTYPE" speedFactor="0.98" duration="178.50" waitingTime="0.00" timeLoss="24.57" traveltime="178.50">
        <walk depart="88.00" departPos="100.00" arrival="266.50" arrivalPos="93.20" duration="178.50" routeLength="210.56" timeLoss="24.57" maxSpeed="1.37"/>
    </personinfo>
    <personinfo id="person_EW_n.3" depart="65.50" type="DEFAULT_PEDTYPE" speedFactor="0.97" duration="201.00" waitingTime="0.00" timeLoss="45.17" traveltime="201.00">
        <walk depart="65.50" departPos="100.00" arrival="266.50" arrivalPos="93.20" duration="201.00" routeLength="210.56" timeLoss="45.17" maxSpeed="1.35"/>
    </personinfo>
    <personinfo id="person_EW_n.6" depart="107.50" type="DEFAULT_PEDTYPE" speedFactor="1.08" duration="159.50" waitingTime="0.00" timeLoss="19.18" traveltime="159.50">
        <walk depart="107.50" departPos="100.00" arrival="267.00" arrivalPos="93.20" duration="159.50" routeLength="210.56" timeLoss="19.18" maxSpeed="1.50"/>
    </personinfo>
    <tripinfo id="SE.3" depart="205.00" departLane="3_1_1" departPos="5.10" departSpeed="0.00" departDelay="0.45" arrival="267.50" arrivalLane="1_4_1" arrivalPos="186.40" arrivalSpeed="12.68" duration="62.50" routeLength="379.93" waitingTime="20.50" waitingCount="2" stopTime="0.00" timeLoss="31.79" rerouteNo="0" devices="tripinfo_SE.3 routing_SE.3" vType="DEFAULT_VEHTYPE" speedFactor="1.13" vaporized=""/>
    <personinfo id="person_EW_n.2" depart="36.50" type="DEFAULT_PEDTYPE" speedFactor="0.96" duration="232.50" waitingTime="0.00" timeLoss="74.73" traveltime="232.50">
        <walk depart="36.50" departPos="100.00" arrival="269.00" arrivalPos="93.20" duration="232.50" routeLength="210.56" timeLoss="74.73" maxSpeed="1.33"/>
    </personinfo>
    <personinfo id="person_EW_n.8" depart="118.00" type="DEFAULT_PEDTYPE" speedFactor="1.12" duration="151.00" waitingTime="0.00" timeLoss="15.70" traveltime="151.00">
        <walk depart="118.00" departPos="100.00" arrival="269.00" arrivalPos="93.20" duration="151.00" routeLength="210.56" timeLoss="15.70" maxSpeed="1.56"/>
    </personinfo>
    <personinfo id="person_NE_diag.1" depart="40.50" type="DEFAULT_PEDTYPE" speedFactor="0.90" duration="231.00" waitingTime="0.00" timeLoss="54.14" traveltime="231.00">
        <walk depart="40.50" departPos="100.00" arrival="271.50" arrivalPos="93.20" duration="231.00" routeLength="220.38" timeLoss="54.14" maxSpeed="1.25"/>
    </personinfo>
    <tripinfo id="NS.10" depart="234.50" departLane="5_1_1" departPos="5.10" departSpeed="0.00" departDelay="0.12" arrival="271.50" arrivalLane="1_3_1" arrivalPos="189.60" arrivalSpeed="12.64" duration="37.00" routeLength="395.22" waitingTime="0.00" waitingCount="0" stopTime="0.00" timeLoss="5.26" rerouteNo="0" devices="tripinfo_NS.10 routing_NS.10" vType="DEFAULT_VEHTYPE" speedFactor="1.13" vaporized=""/>
    <personinfo id="person_WE_n.1" depart="22.50" type="DEFAULT_PEDTYPE" speedFactor="0.93" duration="249.50" waitingTime="0.00" timeLoss="76.61" traveltime="249.50">
        <walk depart="22.50" departPos="100.00" arrival="272.00" arrivalPos="93.20" duration="249.50" routeLength="224.16" timeLoss="76.61" maxSpeed="1.30"/>
    </personinfo>
    <personinfo id="person_EW_s.0" depart="31.00" type="DEFAULT_PEDTYPE" speedFactor="0.93" duration="242.00" waitingTime="0.00" timeLoss="69.04" traveltime="242.00">
        <walk depart="31.00" departPos="100.00" arrival="273.00" arrivalPos="93.20" duration="242.00" routeLength="222.86" timeLoss="69.04" maxSpeed="1.29"/>
    </personinfo>
    <personinfo id="person_EW_n.4" depart="85.50" type="DEFAULT_PEDTYPE" speedFactor="0.92" duration="188.00" waitingTime="0.00" timeLoss="22.96" traveltime="188.00">
        <walk depart="85.50" departPos="100.00" arrival="273.50" arrivalPos="93.20" duration="188.00" routeLength="210.56" timeLoss="22.96" maxSpeed="1.28"/>
    </personinfo>
    <personinfo id="person_SW_diag.0" depart="59.00" type="DEFAULT_PEDTYPE" speedFactor="0.97" duration="215.00" waitingTime="0.00" timeLoss="46.00" traveltime="215.00">
        <walk depart="59.00" departPos="100.00" arrival="274.00" arrivalPos="93.20" duration="215.00" routeLength="228.04" timeLoss="46.00" maxSpeed="1.35"/>
    </personinfo>
    <personinfo id="person_WE_s.4" depart="124.50" type="DEFAULT_PEDTYPE" speedFactor="1.08" duration="155.50" waitingTime="0.00" timeLoss="15.70" traveltime="155.50">
        <walk depart="124.50" departPos="100.00" arrival="280.00" arrivalPos="93.20" duration="155.50" routeLength="209.26" timeLoss="15.70" maxSpeed="1.50"/>
    </personinfo>
    <personinfo id="person_EW_n.7" depart="110.50" type="DEFAULT_PEDTYPE" speedFactor="0.98" duration="173.50" waitingTime="0.00" timeLoss="19.10" traveltime="173.50">
        <walk depart="110.50" departPos="100.00" arrival="284.00" arrivalPos="93.20" duration="173.50" routeLength="210.56" timeLoss="19.10" maxSpeed="1.36"/>
    </personinfo>
    <tripinfo id="SN.7" depart="239.00" departLane="3_1_1" departPos="5.10" departSpeed="0.00" departDelay="0.36" arrival="286.00" arrivalLane="1_5_1" arrivalPos="189.60" arrivalSpeed="10.71" duration="47.00" routeLength="395.22" waitingTime="3.50" waitingCount="1" stopTime="0.00" timeLoss="10.38" rerouteNo="0" devices="tripinfo_SN.7 routing_SN.7" vType="DEFAULT_VEHTYPE" speedFactor="0.96" vaporized=""/>
    <tripinfo id="NW.4" depart="250.00" departLane="5_1_1" departPos="5.10" departSpeed="0.00" departDelay="0.00" arrival="289.50" arrivalLane="1_2_1" arrivalPos="186.40" arrivalSpeed="10.98" duration="39.50" routeLength="382.62" waitingTime="0.00" waitingCount="0" stopTime="0.00" timeLoss="3.78" rerouteNo="0" devices="tripinfo_NW.4 routing_NW.4" vType="DEFAULT_VEHTYPE" speedFactor="0.98" vaporized=""/>
    <personinfo id="person_NW_diag.3" depart="160.50" type="DEFAULT_PEDTYPE" speedFactor="1.13" duration="135.00" waitingTime="0.00" timeLoss="13.03" traveltime="135.00">
        <walk depart="160.50" departPos="100.00" arrival="295.50" arrivalPos="93.20" duration="135.00" routeLength="190.90" timeLoss="13.03" maxSpeed="1.57"/>
    </personinfo>
    <personinfo id="person_NE_diag.2" depart="102.50" type="DEFAULT_PEDTYPE" speedFactor="1.09" duration="194.50" waitingTime="0.00" timeLoss="46.90" traveltime="194.50">
        <walk depart="102.50" departPos="100.00" arrival="297.00" arrivalPos="93.20" duration="194.50" routeLength="223.02" timeLoss="46.90" maxSpeed="1.51"/>
    </personinfo>
    <personinfo id="person_NW_diag.2" depart="108.50" type="DEFAULT_PEDTYPE" speedFactor="0.80" duration="189.50" waitingTime="0.00" timeLoss="18.69" traveltime="189.50">
        <walk depart="108.50" departPos="100.00" arrival="298.00" arrivalPos="93.20" duration="189.50" routeLength="190.90" timeLoss="18.69" maxSpeed="1.12"/>
    </personinfo>