<?xml version="1.0" encoding="UTF-8"?>

<!-- generated on 2025-03-17 11:50:05 by Eclipse SUMO GUI Version 1.22.0
<sumoConfiguration xmlns:xsi="http://www.w3.org/2001/XMLSchema-instance" xsi:noNamespaceSchemaLocation="http://sumo.dlr.de/xsd/sumoConfiguration.xsd">

    <input>
        <net-file value="C:\Users\chris\PycharmProjects\UW_CET593_project2\environment/network_model/UW_intersection_pedestrian_X.net.xml"/>
        <route-files value="C:\Users\chris\PycharmProjects\UW_CET593_project2\environment/network_model/UW_IntersectionNormalDemand.rou.xml"/>
        <additional-files value="C:\Users\chris\PycharmProjects\UW_CET593_project2\environment/network_model/UW_intersection_signalFixed_X.add.xml"/>
    </input>

    <output>
        <queue-output value="C:\Users\chris\PycharmProjects\UW_CET593_project2\environment/simulation_data/UW_intersection/queues_fixed_time_symmetric_pene_100.xml"/>
        <tripinfo-output value="C:\Users\chris\PycharmProjects\UW_CET593_project2\environment/simulation_data/UW_intersection/tripinfo_fixed_time_symmetric_pene_100.xml"/>
    </output>

    <time>
        <begin value="0"/>
        <step-length value="0.5"/>
    </time>

    <processing>
        <waiting-time-memory value="1000"/>
    </processing>

    <report>
        <verbose value="true"/>
        <no-step-log value="true"/>
    </report>

    <traci_server>
        <remote-port value="55242"/>
    </traci_server>

    <gui_only>
        <start value="true"/>
    </gui_only>

</sumoConfiguration>
-->

<tripinfos xmlns:xsi="http://www.w3.org/2001/XMLSchema-instance" xsi:noNamespaceSchemaLocation="http://sumo.dlr.de/xsd/tripinfo_file.xsd">
    <tripinfo id="NS.0" depart="0.00" departLane="5_1_1" departPos="5.10" departSpeed="0.00" departDelay="0.00" arrival="37.00" arrivalLane="1_3_1" arrivalPos="189.60" arrivalSpeed="11.53" duration="37.00" routeLength="395.22" waitingTime="0.00" waitingCount="0" stopTime="0.00" timeLoss="3.58" rerouteNo="0" devices="tripinfo_NS.0 routing_NS.0" vType="DEFAULT_VEHTYPE" speedFactor="1.06" vaporized=""/>
    <tripinfo id="SN.0" depart="0.00" departLane="3_1_2" departPos="5.10" departSpeed="0.00" departDelay="0.00" arrival="37.50" arrivalLane="1_5_1" arrivalPos="189.60" arrivalSpeed="11.35" duration="37.50" routeLength="395.22" waitingTime="0.00" waitingCount="0" stopTime="0.00" timeLoss="3.66" rerouteNo="0" devices="tripinfo_SN.0 routing_SN.0" vType="DEFAULT_VEHTYPE" speedFactor="1.05" vaporized=""/>
    <tripinfo id="SE.0" depart="0.00" departLane="3_1_1" departPos="5.10" departSpeed="0.00" departDelay="0.00" arrival="39.50" arrivalLane="1_4_1" arrivalPos="186.40" arrivalSpeed="11.00" duration="39.50" routeLength="379.93" waitingTime="0.00" waitingCount="0" stopTime="0.00" timeLoss="4.19" rerouteNo="0" devices="tripinfo_SE.0 routing_SE.0" vType="DEFAULT_VEHTYPE" speedFactor="0.99" vaporized=""/>
    <tripinfo id="NE.0" depart="0.00" departLane="5_1_3" departPos="5.10" departSpeed="0.00" departDelay="0.00" arrival="42.50" arrivalLane="1_4_2" arrivalPos="186.40" arrivalSpeed="10.60" duration="42.50" routeLength="392.89" waitingTime="0.00" waitingCount="0" stopTime="0.00" timeLoss="5.29" rerouteNo="0" devices="tripinfo_NE.0 routing_NE.0" vType="DEFAULT_VEHTYPE" speedFactor="0.96" vaporized=""/>
    <tripinfo id="SW.0" depart="0.00" departLane="3_1_3" departPos="5.10" departSpeed="0.00" departDelay="0.00" arrival="43.50" arrivalLane="1_2_1" arrivalPos="186.40" arrivalSpeed="9.73" duration="43.50" routeLength="392.89" waitingTime="0.00" waitingCount="0" stopTime="0.00" timeLoss="3.96" rerouteNo="0" devices="tripinfo_SW.0 routing_SW.0" vType="DEFAULT_VEHTYPE" speedFactor="0.90" vaporized=""/>
    <tripinfo id="NW.0" depart="3.00" departLane="5_1_1" departPos="5.10" departSpeed="0.00" departDelay="3.00" arrival="45.00" arrivalLane="1_2_1" arrivalPos="186.40" arrivalSpeed="10.41" duration="42.00" routeLength="382.62" waitingTime="0.00" waitingCount="0" stopTime="0.00" timeLoss="6.66" rerouteNo="0" devices="tripinfo_NW.0 routing_NW.0" vType="DEFAULT_VEHTYPE" speedFactor="0.99" vaporized=""/>
    <tripinfo id="WE.0" depart="0.00" departLane="2_1_1" departPos="5.10" departSpeed="0.00" departDelay="0.00" arrival="52.50" arrivalLane="1_4_1" arrivalPos="186.40" arrivalSpeed="11.66" duration="52.50" routeLength="395.13" waitingTime="12.50" waitingCount="1" stopTime="0.00" timeLoss="19.88" rerouteNo="0" devices="tripinfo_WE.0 routing_WE.0" vType="DEFAULT_VEHTYPE" speedFactor="1.09" vaporized=""/>
    <tripinfo id="EN.0" depart="0.00" departLane="4_1_1" departPos="5.10" departSpeed="0.00" departDelay="0.00" arrival="53.50" arrivalLane="1_5_1" arrivalPos="189.60" arrivalSpeed="10.74" duration="53.50" routeLength="382.62" waitingTime="11.00" waitingCount="1" stopTime="0.00" timeLoss="17.71" rerouteNo="0" devices="tripinfo_EN.0 routing_EN.0" vType="DEFAULT_VEHTYPE" speedFactor="0.98" vaporized=""/>
    <tripinfo id="WN.0" depart="2.50" departLane="2_1_1" departPos="5.10" departSpeed="0.00" departDelay="2.50" arrival="54.00" arrivalLane="1_5_2" arrivalPos="189.60" arrivalSpeed="12.43" duration="51.50" routeLength="392.90" waitingTime="8.50" waitingCount="1" stopTime="0.00" timeLoss="19.73" rerouteNo="0" devices="tripinfo_WN.0 routing_WN.0" vType="DEFAULT_VEHTYPE" speedFactor="1.11" vaporized=""/>
    <tripinfo id="WS.0" depart="5.00" departLane="2_1_1" departPos="5.10" departSpeed="0.00" departDelay="5.00" arrival="56.50" arrivalLane="1_3_1" arrivalPos="189.60" arrivalSpeed="11.84" duration="51.50" routeLength="385.10" waitingTime="6.50" waitingCount="1" stopTime="0.00" timeLoss="18.58" rerouteNo="0" devices="tripinfo_WS.0 routing_WS.0" vType="DEFAULT_VEHTYPE" speedFactor="1.07" vaporized=""/>
    <tripinfo id="ES.0" depart="0.00" departLane="4_1_2" departPos="5.10" departSpeed="0.00" departDelay="0.00" arrival="57.50" arrivalLane="1_3_2" arrivalPos="189.60" arrivalSpeed="11.23" duration="57.50" routeLength="392.89" waitingTime="13.00" waitingCount="2" stopTime="0.00" timeLoss="23.17" rerouteNo="0" devices="tripinfo_ES.0 routing_ES.0" vType="DEFAULT_VEHTYPE" speedFactor="1.04" vaporized=""/>
    <tripinfo id="EW.0" depart="3.00" departLane="4_1_2" departPos="5.10" departSpeed="0.00" departDelay="3.00" arrival="60.00" arrivalLane="1_2_1" arrivalPos="186.40" arrivalSpeed="10.81" duration="57.00" routeLength="394.90" waitingTime="8.00" waitingCount="2" stopTime="0.00" timeLoss="20.76" rerouteNo="0" devices="tripinfo_EW.0 routing_EW.0" vType="DEFAULT_VEHTYPE" speedFactor="0.98" vaporized=""/>
    <tripinfo id="SN.1" depart="27.50" departLane="3_1_1" departPos="5.10" departSpeed="0.00" departDelay="0.23" arrival="112.00" arrivalLane="1_5_1" arrivalPos="189.60" arrivalSpeed="12.78" duration="84.50" routeLength="395.22" waitingTime="45.50" waitingCount="1" stopTime="0.00" timeLoss="53.37" rerouteNo="0" devices="tripinfo_SN.1 routing_SN.1" vType="DEFAULT_VEHTYPE" speedFactor="1.15" vaporized=""/>
    <tripinfo id="SE.1" depart="55.00" departLane="3_1_1" departPos="5.10" departSpeed="0.00" departDelay="0.46" arrival="113.00" arrivalLane="1_4_1" arrivalPos="186.40" arrivalSpeed="12.57" duration="58.00" routeLength="379.93" waitingTime="16.00" waitingCount="1" stopTime="0.00" timeLoss="27.36" rerouteNo="0" devices="tripinfo_SE.1 routing_SE.1" vType="DEFAULT_VEHTYPE" speedFactor="1.13" vaporized=""/>
    <tripinfo id="SN.2" depart="55.00" departLane="3_1_2" departPos="5.10" departSpeed="0.00" departDelay="0.45" arrival="113.50" arrivalLane="1_5_1" arrivalPos="189.60" arrivalSpeed="12.87" duration="58.50" routeLength="395.22" waitingTime="18.50" waitingCount="2" stopTime="0.00" timeLoss="27.81" rerouteNo="0" devices="tripinfo_SN.2 routing_SN.2" vType="DEFAULT_VEHTYPE" speedFactor="1.16" vaporized=""/>
    <tripinfo id="NS.2" depart="37.50" departLane="5_1_2" departPos="5.10" departSpeed="0.00" departDelay="0.00" arrival="120.00" arrivalLane="1_3_1" arrivalPos="189.60" arrivalSpeed="12.59" duration="82.50" routeLength="395.22" waitingTime="40.50" waitingCount="2" stopTime="0.00" timeLoss="51.17" rerouteNo="0" devices="tripinfo_NS.2 routing_NS.2" vType="DEFAULT_VEHTYPE" speedFactor="1.13" vaporized=""/>
    <tripinfo id="NS.1" depart="19.00" departLane="5_1_2" departPos="5.10" departSpeed="0.00" departDelay="0.25" arrival="122.00" arrivalLane="1_3_1" arrivalPos="189.60" arrivalSpeed="13.38" duration="103.00" routeLength="395.22" waitingTime="64.00" waitingCount="2" stopTime="0.00" timeLoss="73.39" rerouteNo="0" devices="tripinfo_NS.1 routing_NS.1" vType="DEFAULT_VEHTYPE" speedFactor="1.21" vaporized=""/>
    <tripinfo id="SN.3" depart="82.00" departLane="3_1_2" departPos="5.10" departSpeed="0.00" departDelay="0.18" arrival="123.50" arrivalLane="1_5_1" arrivalPos="189.60" arrivalSpeed="10.40" duration="41.50" routeLength="395.22" waitingTime="0.00" waitingCount="0" stopTime="0.00" timeLoss="3.54" rerouteNo="0" devices="tripinfo_SN.3 routing_SN.3" vType="DEFAULT_VEHTYPE" speedFactor="0.94" vaporized=""/>
    <tripinfo id="NW.1" depart="50.00" departLane="5_1_1" departPos="5.10" departSpeed="0.00" departDelay="0.00" arrival="126.00" arrivalLane="1_2_1" arrivalPos="186.40" arrivalSpeed="10.82" duration="76.00" routeLength="382.62" waitingTime="28.50" waitingCount="2" stopTime="0.00" timeLoss="40.40" rerouteNo="0" devices="tripinfo_NW.1 routing_NW.1" vType="DEFAULT_VEHTYPE" speedFactor="0.98" vaporized=""/>
    <tripinfo id="NS.3" depart="56.50" departLane="5_1_2" departPos="5.10" departSpeed="0.00" departDelay="0.25" arrival="126.00" arrivalLane="1_3_1" arrivalPos="189.60" arrivalSpeed="9.32" duration="69.50" routeLength="395.22" waitingTime="15.50" waitingCount="1" stopTime="0.00" timeLoss="29.12" rerouteNo="0" devices="tripinfo_NS.3 routing_NS.3" vType="DEFAULT_VEHTYPE" speedFactor="0.87" vaporized=""/>
    <tripinfo id="NS.4" depart="75.00" departLane="5_1_2" departPos="5.10" departSpeed="0.00" departDelay="0.00" arrival="129.50" arrivalLane="1_3_1" arrivalPos="189.60" arrivalSpeed="8.76" duration="54.50" routeLength="395.22" waitingTime="0.00" waitingCount="0" stopTime="0.00" timeLoss="11.25" rerouteNo="0" devices="tripinfo_NS.4 routing_NS.4" vType="DEFAULT_VEHTYPE" speedFactor="0.82" vaporized=""/>
    <tripinfo id="NS.5" depart="94.00" departLane="5_1_1" departPos="5.10" departSpeed="0.00" departDelay="0.25" arrival="133.00" arrivalLane="1_3_1" arrivalPos="189.60" arrivalSpeed="10.91" duration="39.00" routeLength="395.22" waitingTime="0.00" waitingCount="0" stopTime="0.00" timeLoss="3.50" rerouteNo="0" devices="tripinfo_NS.5 routing_NS.5" vType="DEFAULT_VEHTYPE" speedFactor="1.01" vaporized=""/>
    <tripinfo id="WE.1" depart="50.00" departLane="2_1_1" departPos="5.10" departSpeed="0.00" departDelay="0.00" arrival="141.50" arrivalLane="1_4_1" arrivalPos="186.40" arrivalSpeed="12.59" duration="91.50" routeLength="395.13" waitingTime="52.50" waitingCount="1" stopTime="0.00" timeLoss="61.38" rerouteNo="0" devices="tripinfo_WE.1 routing_WE.1" vType="DEFAULT_VEHTYPE" speedFactor="1.18" vaporized=""/>
    <personinfo id="person_NS_e.0" depart="5.50" type="DEFAULT_PEDTYPE" speedFactor="1.25" duration="139.50" waitingTime="0.00" timeLoss="13.07" traveltime="139.50">
        <walk depart="5.50" departPos="100.00" arrival="145.00" arrivalPos="94.80" duration="139.50" routeLength="219.53" timeLoss="13.07" maxSpeed="1.74"/>
    </personinfo>
    <tripinfo id="WS.1" depart="67.00" departLane="2_1_1" departPos="5.10" departSpeed="0.00" departDelay="0.33" arrival="148.00" arrivalLane="1_3_1" arrivalPos="189.60" arrivalSpeed="9.17" duration="81.00" routeLength="385.10" waitingTime="30.50" waitingCount="1" stopTime="0.00" timeLoss="40.50" rerouteNo="0" devices="tripinfo_WS.1 routing_WS.1" vType="DEFAULT_VEHTYPE" speedFactor="0.87" vaporized=""/>
    <tripinfo id="WE.2" depart="100.00" departLane="2_1_1" departPos="5.10" departSpeed="0.00" departDelay="0.00" arrival="149.00" arrivalLane="1_4_1" arrivalPos="186.40" arrivalSpeed="10.33" duration="49.00" routeLength="395.13" waitingTime="0.50" waitingCount="1" stopTime="0.00" timeLoss="11.59" rerouteNo="0" devices="tripinfo_WE.2 routing_WE.2" vType="DEFAULT_VEHTYPE" speedFactor="0.95" vaporized=""/>
    <personinfo id="person_NW_diag.0" depart="4.50" type="DEFAULT_PEDTYPE" speedFactor="0.98" duration="156.50" waitingTime="0.00" timeLoss="16.83" traveltime="156.50">
        <walk depart="4.50" departPos="100.00" arrival="161.00" arrivalPos="93.20" duration="156.50" routeLength="190.90" timeLoss="16.83" maxSpeed="1.37"/>
    </personinfo>
    <personinfo id="person_SW_diag.0" depart="30.00" type="DEFAULT_PEDTYPE" speedFactor="1.30" duration="136.00" waitingTime="0.00" timeLoss="14.37" traveltime="136.00">
        <walk depart="30.00" departPos="100.00" arrival="166.00" arrivalPos="93.20" duration="136.00" routeLength="219.58" timeLoss="14.37" maxSpeed="1.81"/>
    </personinfo>
    <personinfo id="person_EW_n.1" depart="17.50" type="DEFAULT_PEDTYPE" speedFactor="1.09" duration="155.00" waitingTime="0.00" timeLoss="16.04" traveltime="155.00">
        <walk depart="17.50" departPos="100.00" arrival="172.50" arrivalPos="93.20" duration="155.00" routeLength="210.56" timeLoss="16.04" maxSpeed="1.52"/>
    </personinfo>
    <personinfo id="person_NW_diag.1" depart="20.50" type="DEFAULT_PEDTYPE" speedFactor="1.00" duration="152.50" waitingTime="0.00" timeLoss="14.49" traveltime="152.50">
        <walk depart="20.50" departPos="100.00" arrival="173.00" arrivalPos="93.20" duration="152.50" routeLength="190.90" timeLoss="14.49" maxSpeed="1.38"/>
    </personinfo>
    <personinfo id="person_WE_s.0" depart="2.00" type="DEFAULT_PEDTYPE" speedFactor="0.98" duration="171.50" waitingTime="0.00" timeLoss="17.00" traveltime="171.50">
        <walk depart="2.00" departPos="100.00" arrival="173.50" arrivalPos="93.20" duration="171.50" routeLength="209.26" timeLoss="17.00" maxSpeed="1.35"/>
    </personinfo>
    <personinfo id="person_SE_diag.0" depart="25.50" type="DEFAULT_PEDTYPE" speedFactor="0.96" duration="156.00" waitingTime="0.00" timeLoss="15.87" traveltime="156.00">
        <walk depart="25.50" departPos="100.00" arrival="181.50" arrivalPos="93.20" duration="156.00" routeLength="187.66" timeLoss="15.87" maxSpeed="1.34"/>
    </personinfo>
    <personinfo id="person_SE_diag.1" depart="44.00" type="DEFAULT_PEDTYPE" speedFactor="1.00" duration="151.00" waitingTime="0.00" timeLoss="15.37" traveltime="151.00">
        <walk depart="44.00" departPos="100.00" arrival="195.00" arrivalPos="93.20" duration="151.00" routeLength="187.66" timeLoss="15.37" maxSpeed="1.38"/>
    </personinfo>
    <personinfo id="person_NW_diag.2" depart="32.00" type="DEFAULT_PEDTYPE" speedFactor="0.92" duration="166.50" waitingTime="0.00" timeLoss="17.50" traveltime="166.50">
        <walk depart="32.00" departPos="100.00" arrival="198.50" arrivalPos="93.20" duration="166.50" routeLength="190.90" timeLoss="17.50" maxSpeed="1.28"/>
    </personinfo>
    <personinfo id="person_NW_diag.3" depart="56.00" type="DEFAULT_PEDTYPE" speedFactor="1.06" duration="144.50" waitingTime="0.00" timeLoss="15.37" traveltime="144.50">
        <walk depart="56.00" departPos="100.00" arrival="200.50" arrivalPos="93.20" duration="144.50" routeLength="190.90" timeLoss="15.37" maxSpeed="1.48"/>
    </personinfo>
    <tripinfo id="NW.2" depart="100.00" departLane="5_1_1" departPos="5.10" departSpeed="0.00" departDelay="0.00" arrival="202.00" arrivalLane="1_2_1" arrivalPos="186.40" arrivalSpeed="9.84" duration="102.00" routeLength="382.62" waitingTime="57.50" waitingCount="1" stopTime="0.00" timeLoss="64.17" rerouteNo="0" devices="tripinfo_NW.2 routing_NW.2" vType="DEFAULT_VEHTYPE" speedFactor="0.93" vaporized=""/>
    <tripinfo id="SE.2" depart="109.50" departLane="3_1_1" departPos="5.10" departSpeed="0.00" departDelay="0.41" arrival="202.50" arrivalLane="1_4_1" arrivalPos="186.40" arrivalSpeed="10.78" duration="93.00" routeLength="379.93" waitingTime="52.00" waitingCount="1" stopTime="0.00" timeLoss="58.29" rerouteNo="0" devices="tripinfo_SE.2 routing_SE.2" vType="DEFAULT_VEHTYPE" speedFactor="1.00" vaporized=""/>
    <tripinfo id="NS.8" depart="150.00" departLane="5_1_2" departPos="5.10" departSpeed="0.00" departDelay="0.00" arrival="203.00" arrivalLane="1_3_2" arrivalPos="189.60" arrivalSpeed="10.84" duration="53.00" routeLength="395.22" waitingTime="8.00" waitingCount="1" stopTime="0.00" timeLoss="18.08" rerouteNo="0" devices="tripinfo_NS.8 routing_NS.8" vType="DEFAULT_VEHTYPE" speedFactor="1.02" vaporized=""/>
    <tripinfo id="SN.4" depart="109.50" departLane="3_1_2" departPos="5.10" departSpeed="0.00" departDelay="0.41" arrival="203.50" arrivalLane="1_5_1" arrivalPos="189.60" arrivalSpeed="9.72" duration="94.00" routeLength="395.22" waitingTime="48.00" waitingCount="1" stopTime="0.00" timeLoss="54.52" rerouteNo="0" devices="tripinfo_SN.4 routing_SN.4" vType="DEFAULT_VEHTYPE" speedFactor="0.90" vaporized=""/>
    <tripinfo id="SE.3" depart="164.00" departLane="3_1_1" departPos="5.10" departSpeed="0.00" departDelay="0.37" arrival="204.00" arrivalLane="1_4_1" arrivalPos="186.40" arrivalSpeed="12.32" duration="40.00" routeLength="379.93" waitingTime="0.00" waitingCount="0" stopTime="0.00" timeLoss="8.61" rerouteNo="0" devices="tripinfo_SE.3 routing_SE.3" vType="DEFAULT_VEHTYPE" speedFactor="1.11" vaporized=""/>
    <tripinfo id="NS.7" depart="131.50" departLane="5_1_1" departPos="5.10" departSpeed="0.00" departDelay="0.25" arrival="205.00" arrivalLane="1_3_2" arrivalPos="189.60" arrivalSpeed="11.19" duration="73.50" routeLength="395.22" waitingTime="26.50" waitingCount="1" stopTime="0.00" timeLoss="38.84" rerouteNo="0" devices="tripinfo_NS.7 routing_NS.7" vType="DEFAULT_VEHTYPE" speedFactor="1.02" vaporized=""/>
    <tripinfo id="SN.5" depart="136.50" departLane="3_1_1" departPos="5.10" departSpeed="0.00" departDelay="0.14" arrival="205.00" arrivalLane="1_5_2" arrivalPos="189.60" arrivalSpeed="10.41" duration="68.50" routeLength="395.22" waitingTime="21.00" waitingCount="1" stopTime="0.00" timeLoss="30.59" rerouteNo="0" devices="tripinfo_SN.5 routing_SN.5" vType="DEFAULT_VEHTYPE" speedFactor="0.93" vaporized=""/>
    <tripinfo id="NW.3" depart="150.00" departLane="5_1_1" departPos="5.10" departSpeed="0.00" departDelay="0.00" arrival="206.00" arrivalLane="1_2_1" arrivalPos="186.40" arrivalSpeed="10.35" duration="56.00" routeLength="382.62" waitingTime="8.50" waitingCount="1" stopTime="0.00" timeLoss="19.84" rerouteNo="0" devices="tripinfo_NW.3 routing_NW.3" vType="DEFAULT_VEHTYPE" speedFactor="0.96" vaporized=""/>
    <personinfo id="person_NW_diag.4" depart="67.00" type="DEFAULT_PEDTYPE" speedFactor="1.09" duration="139.50" waitingTime="0.00" timeLoss="13.63" traveltime="139.50">
        <walk depart="67.00" departPos="100.00" arrival="206.50" arrivalPos="93.20" duration="139.50" routeLength="190.90" timeLoss="13.63" maxSpeed="1.52"/>
    </personinfo>
    <tripinfo id="NS.6" depart="112.50" departLane="5_1_2" departPos="5.10" departSpeed="0.00" departDelay="0.00" arrival="207.00" arrivalLane="1_3_1" arrivalPos="189.60" arrivalSpeed="10.41" duration="94.50" routeLength="395.22" waitingTime="46.50" waitingCount="2" stopTime="0.00" timeLoss="57.32" rerouteNo="0" devices="tripinfo_NS.6 routing_NS.6" vType="DEFAULT_VEHTYPE" speedFactor="0.96" vaporized=""/>
    <tripinfo id="NE.1" depart="150.00" departLane="5_1_3" departPos="5.10" departSpeed="0.00" departDelay="0.00" arrival="208.00" arrivalLane="1_4_2" arrivalPos="186.40" arrivalSpeed="12.43" duration="58.00" routeLength="392.89" waitingTime="16.00" waitingCount="2" stopTime="0.00" timeLoss="27.17" rerouteNo="0" devices="tripinfo_NE.1 routing_NE.1" vType="DEFAULT_VEHTYPE" speedFactor="1.16" vaporized=""/>
    <tripinfo id="NS.9" depart="169.00" departLane="5_1_2" departPos="5.10" departSpeed="0.00" departDelay="0.25" arrival="208.00" arrivalLane="1_3_2" arrivalPos="189.60" arrivalSpeed="11.12" duration="39.00" routeLength="395.22" waitingTime="0.00" waitingCount="0" stopTime="0.00" timeLoss="3.48" rerouteNo="0" devices="tripinfo_NS.9 routing_NS.9" vType="DEFAULT_VEHTYPE" speedFactor="1.00" vaporized=""/>
    <tripinfo id="SN.6" depart="164.00" departLane="3_1_2" departPos="5.10" departSpeed="0.00" departDelay="0.36" arrival="208.50" arrivalLane="1_5_1" arrivalPos="189.60" arrivalSpeed="9.12" duration="44.50" routeLength="395.22" waitingTime="0.00" waitingCount="0" stopTime="0.00" timeLoss="3.65" rerouteNo="0" devices="tripinfo_SN.6 routing_SN.6" vType="DEFAULT_VEHTYPE" speedFactor="0.86" vaporized=""/>
    <personinfo id="person_WE_s.2" depart="51.50" type="DEFAULT_PEDTYPE" speedFactor="1.20" duration="168.50" waitingTime="0.00" timeLoss="42.99" traveltime="168.50">
        <walk depart="51.50" departPos="100.00" arrival="220.00" arrivalPos="93.20" duration="168.50" routeLength="209.26" timeLoss="42.99" maxSpeed="1.67"/>
    </personinfo>
    <personinfo id="person_NS_e.2" depart="45.50" type="DEFAULT_PEDTYPE" speedFactor="1.13" duration="177.00" waitingTime="0.00" timeLoss="36.81" traveltime="177.00">
        <walk depart="45.50" departPos="100.00" arrival="222.50" arrivalPos="94.80" duration="177.00" routeLength="219.53" timeLoss="36.81" maxSpeed="1.57"/>
    </personinfo>
    <personinfo id="person_NW_diag.5" depart="88.00" type="DEFAULT_PEDTYPE" speedFactor="1.11" duration="138.50" waitingTime="0.00" timeLoss="14.64" traveltime="138.50">
        <walk depart="88.00" departPos="100.00" arrival="226.50" arrivalPos="93.20" duration="138.50" routeLength="190.90" timeLoss="14.64" maxSpeed="1.54"/>
    </personinfo>
    <personinfo id="person_WE_s.1" depart="43.50" type="DEFAULT_PEDTYPE" speedFactor="1.08" duration="185.00" waitingTime="0.00" timeLoss="45.84" traveltime="185.00">
        <walk depart="43.50" departPos="100.00" arrival="228.50" arrivalPos="93.20" duration="185.00" routeLength="209.26" timeLoss="45.84" maxSpeed="1.50"/>
    </personinfo>
    <personinfo id="person_SN_w.1" depart="52.50" type="DEFAULT_PEDTYPE" speedFactor="1.00" duration="178.00" waitingTime="0.00" timeLoss="21.56" traveltime="178.00">
        <walk depart="52.50" departPos="100.00" arrival="230.50" arrivalPos="94.80" duration="178.00" routeLength="217.89" timeLoss="21.56" maxSpeed="1.39"/>
    </personinfo>
    <tripinfo id="EN.1" depart="150.00" departLane="4_1_1" departPos="5.10" departSpeed="0.00" departDelay="0.00" arrival="230.50" arrivalLane="1_5_1" arrivalPos="189.60" arrivalSpeed="13.23" duration="80.50" routeLength="382.62" waitingTime="43.50" waitingCount="1" stopTime="0.00" timeLoss="51.15" rerouteNo="0" devices="tripinfo_EN.1 routing_EN.1" vType="DEFAULT_VEHTYPE" speedFactor="1.18" vaporized=""/>
    <personinfo id="person_WE_s.3" depart="62.00" type="DEFAULT_PEDTYPE" speedFactor="1.05" duration="169.50" waitingTime="0.00" timeLoss="25.43" traveltime="169.50">
        <walk depart="62.00" departPos="100.00" arrival="231.50" arrivalPos="93.20" duration="169.50" routeLength="209.26" timeLoss="25.43" maxSpeed="1.45"/>
    </personinfo>
    <personinfo id="person_SN_w.0" depart="3.00" type="DEFAULT_PEDTYPE" speedFactor="1.00" duration="229.50" waitingTime="0.00" timeLoss="72.98" traveltime="229.50">
        <walk depart="3.00" departPos="100.00" arrival="232.50" arrivalPos="94.80" duration="229.50" routeLength="217.89" timeLoss="72.98" maxSpeed="1.39"/>
    </personinfo>
    <tripinfo id="WS.2" depart="133.50" departLane="2_1_1" departPos="5.10" departSpeed="0.00" departDelay="0.17" arrival="233.00" arrivalLane="1_3_1" arrivalPos="189.60" arrivalSpeed="10.85" duration="99.50" routeLength="385.10" waitingTime="58.00" waitingCount="1" stopTime="0.00" timeLoss="64.49" rerouteNo="0" devices="tripinfo_WS.2 routing_WS.2" vType="DEFAULT_VEHTYPE" speedFactor="1.01" vaporized=""/>
    <tripinfo id="WE.3" depart="150.00" departLane="2_1_1" departPos="5.10" departSpeed="0.00" departDelay="0.00" arrival="233.00" arrivalLane="1_4_1" arrivalPos="186.40" arrivalSpeed="12.87" duration="83.00" routeLength="395.13" waitingTime="41.50" waitingCount="1" stopTime="0.00" timeLoss="52.58" rerouteNo="0" devices="tripinfo_WE.3 routing_WE.3" vType="DEFAULT_VEHTYPE" speedFactor="1.17" vaporized=""/>
    <personinfo id="person_EW_n.4" depart="85.50" type="DEFAULT_PEDTYPE" speedFactor="1.14" duration="148.50" waitingTime="0.00" timeLoss="15.76" traveltime="148.50">
        <walk depart="85.50" departPos="100.00" arrival="234.00" arrivalPos="93.20" duration="148.50" routeLength="210.56" timeLoss="15.76" maxSpeed="1.59"/>
    </personinfo>
    <personinfo id="person_SN_e.0" depart="43.00" type="DEFAULT_PEDTYPE" speedFactor="1.03" duration="191.00" waitingTime="0.00" timeLoss="44.81" traveltime="191.00">
        <walk depart="43.00" departPos="100.00" arrival="234.00" arrivalPos="94.80" duration="191.00" routeLength="209.13" timeLoss="44.81" maxSpeed="1.43"/>
    </personinfo>
    <tripinfo id="EW.1" depart="150.00" departLane="4_1_2" departPos="5.10" departSpeed="0.00" departDelay="0.00" arrival="236.00" arrivalLane="1_2_1" arrivalPos="186.40" arrivalSpeed="9.42" duration="86.00" routeLength="394.90" waitingTime="39.00" waitingCount="1" stopTime="0.00" timeLoss="46.14" rerouteNo="0" devices="tripinfo_EW.1 routing_EW.1" vType="DEFAULT_VEHTYPE" speedFactor="0.89" vaporized=""/>
    <personinfo id="person_WE_n.0" depart="10.00" type="DEFAULT_PEDTYPE" speedFactor="1.00" duration="227.50" waitingTime="0.00" timeLoss="65.62" traveltime="227.50">
        <walk depart="10.00" departPos="100.00" arrival="237.50" arrivalPos="93.20" duration="227.50" routeLength="224.16" timeLoss="65.62" maxSpeed="1.38"/>
    </personinfo>
    <personinfo id="person_WE_n.3" depart="37.00" type="DEFAULT_PEDTYPE" speedFactor="0.99" duration="201.00" waitingTime="0.00" timeLoss="37.48" traveltime="201.00">
        <walk depart="37.00" departPos="100.00" arrival="238.00" arrivalPos="93.20" duration="201.00" routeLength="224.16" timeLoss="37.48" maxSpeed="1.37"/>
    </personinfo>
    <personinfo id="person_WE_n.1" depart="31.50" type="DEFAULT_PEDTYPE" speedFactor="1.12" duration="206.50" waitingTime="0.00" timeLoss="62.31" traveltime="206.50">
        <walk depart="31.50" departPos="100.00" arrival="238.00" arrivalPos="93.20" duration="206.50" routeLength="224.16" timeLoss="62.31" maxSpeed="1.55"/>
    </personinfo>
    <tripinfo id="WE.4" depart="202.00" departLane="2_1_1" departPos="5.10" departSpeed="0.00" departDelay="2.00" arrival="238.00" arrivalLane="1_4_1" arrivalPos="186.40" arrivalSpeed="11.95" duration="36.00" routeLength="395.13" waitingTime="0.00" waitingCount="0" stopTime="0.00" timeLoss="3.66" rerouteNo="0" devices="tripinfo_WE.4 routing_WE.4" vType="DEFAULT_VEHTYPE" speedFactor="1.11" vaporized=""/>
    <personinfo id="person_WE_n.2" depart="31.50" type="DEFAULT_PEDTYPE" speedFactor="1.00" duration="208.00" waitingTime="0.00" timeLoss="46.27" traveltime="208.00">
        <walk depart="31.50" departPos="100.00" arrival="239.50" arrivalPos="93.20" duration="208.00" routeLength="224.16" timeLoss="46.27" maxSpeed="1.39"/>
    </personinfo>
    <personinfo id="person_NE_diag.1" depart="28.50" type="DEFAULT_PEDTYPE" speedFactor="1.02" duration="212.50" waitingTime="0.00" timeLoss="60.53" traveltime="212.50">
        <walk depart="28.50" departPos="100.00" arrival="241.00" arrivalPos="93.20" duration="212.50" routeLength="215.82" timeLoss="60.53" maxSpeed="1.42"/>
    </personinfo>
    <personinfo id="person_EW_n.0" depart="14.50" type="DEFAULT_PEDTYPE" speedFactor="0.95" duration="228.00" waitingTime="0.00" timeLoss="68.59" traveltime="228.00">
        <walk depart="14.50" departPos="100.00" arrival="242.50" arrivalPos="93.20" duration="228.00" routeLength="210.56" timeLoss="68.59" maxSpeed="1.32"/>
    </personinfo>
    <personinfo id="person_NS_e.1" depart="28.50" type="DEFAULT_PEDTYPE" speedFactor="0.91" duration="214.00" waitingTime="0.00" timeLoss="41.14" traveltime="214.00">
        <walk depart="28.50" departPos="100.00" arrival="242.50" arrivalPos="94.80" duration="214.00" routeLength="219.53" timeLoss="41.14" maxSpeed="1.27"/>
    </personinfo>
    <personinfo id="person_NS_e.3" depart="58.50" type="DEFAULT_PEDTYPE" speedFactor="0.98" duration="184.50" waitingTime="0.00" timeLoss="23.84" traveltime="184.50">
        <walk depart="58.50" departPos="100.00" arrival="243.00" arrivalPos="94.80" duration="184.50" routeLength="219.53" timeLoss="23.84" maxSpeed="1.37"/>
    </personinfo>
    <personinfo id="person_EW_n.6" depart="95.00" type="DEFAULT_PEDTYPE" speedFactor="1.14" duration="151.50" waitingTime="0.00" timeLoss="18.97" traveltime="151.50">
        <walk depart="95.00" departPos="100.00" arrival="246.50" arrivalPos="93.20" duration="151.50" routeLength="210.56" timeLoss="18.97" maxSpeed="1.59"/>
    </personinfo>
    <personinfo id="person_NW_diag.9" depart="107.50" type="DEFAULT_PEDTYPE" speedFactor="1.15" duration="139.50" waitingTime="0.00" timeLoss="20.18" traveltime="139.50">
        <walk depart="107.50" departPos="100.00" arrival="247.00" arrivalPos="93.20" duration="139.50" routeLength="190.90" timeLoss="20.18" maxSpeed="1.60"/>
    </personinfo>
    <personinfo id="person_EW_n.5" depart="91.00" type="DEFAULT_PEDTYPE" speedFactor="1.10" duration="156.50" waitingTime="0.00" timeLoss="18.33" traveltime="156.50">
        <walk depart="91.00" departPos="100.00" arrival="247.50" arrivalPos="93.20" duration="156.50" routeLength="210.56" timeLoss="18.33" maxSpeed="1.52"/>
    </personinfo>
    <personinfo id="person_EW_n.3" depart="50.50" type="DEFAULT_PEDTYPE" speedFactor="0.91" duration="197.00" waitingTime="0.00" timeLoss="29.76" traveltime="197.00">
        <walk depart="50.50" departPos="100.00" arrival="247.50" arrivalPos="93.20" duration="197.00" routeLength="210.56" timeLoss="29.76" maxSpeed="1.26"/>
    </personinfo>
    <personinfo id="person_NW_diag.7" depart="94.00" type="DEFAULT_PEDTYPE" speedFactor="1.04" duration="154.00" waitingTime="0.00" timeLoss="21.91" traveltime="154.00">