<?xml version="1.0" encoding="UTF-8"?>

<!-- generated on 2025-03-17 18:21:40 by Eclipse SUMO GUI Version 1.22.0
<sumoConfiguration xmlns:xsi="http://www.w3.org/2001/XMLSchema-instance" xsi:noNamespaceSchemaLocation="http://sumo.dlr.de/xsd/sumoConfiguration.xsd">

    <input>
        <net-file value="C:\Users\chris\PycharmProjects\UW_CET593_project2\environment/network_model/UW_intersection_pedestrian_X.net.xml"/>
        <route-files value="C:\Users\chris\PycharmProjects\UW_CET593_project2\environment/network_model/UW_IntersectionDecreaseDemand.rou.xml"/>
        <additional-files value="C:\Users\chris\PycharmProjects\UW_CET593_project2\environment/network_model/UW_intersection_Concurrent.add.xml"/>
    </input>

    <output>
        <queue-output value="C:\Users\chris\PycharmProjects\UW_CET593_project2\environment/simulation_data/UW_intersection/queues_multi_scale_symmetric_pene_50.xml"/>
        <tripinfo-output value="C:\Users\chris\PycharmProjects\UW_CET593_project2\environment/simulation_data/UW_intersection/tripinfo_multi_scale_symmetric_pene_50.xml"/>
    </output>

    <time>
        <begin value="0"/>
        <step-length value="0.5"/>
    </time>

    <processing>
        <waiting-time-memory value="1000"/>
    </processing>

    <report>
        <verbose value="true"/>
        <no-step-log value="true"/>
    </report>

    <traci_server>
        <remote-port value="62228"/>
    </traci_server>

    <gui_only>
        <start value="true"/>
    </gui_only>

</sumoConfiguration>
-->

<tripinfos xmlns:xsi="http://www.w3.org/2001/XMLSchema-instance" xsi:noNamespaceSchemaLocation="http://sumo.dlr.de/xsd/tripinfo_file.xsd">
    <tripinfo id="EN.0" depart="0.00" departLane="4_1_1" departPos="5.10" departSpeed="0.00" departDelay="0.00" arrival="37.50" arrivalLane="1_5_1" arrivalPos="189.60" arrivalSpeed="11.91" duration="37.50" routeLength="382.62" waitingTime="0.00" waitingCount="0" stopTime="0.00" timeLoss="4.78" rerouteNo="0" devices="tripinfo_EN.0 routing_EN.0" vType="DEFAULT_VEHTYPE" speedFactor="1.06" vaporized=""/>
    <tripinfo id="WE.0" depart="0.00" departLane="2_1_1" departPos="5.10" departSpeed="0.00" departDelay="0.00" arrival="40.00" arrivalLane="1_4_1" arrivalPos="186.40" arrivalSpeed="10.41" duration="40.00" routeLength="395.13" waitingTime="0.00" waitingCount="0" stopTime="0.00" timeLoss="3.19" rerouteNo="0" devices="tripinfo_WE.0 routing_WE.0" vType="DEFAULT_VEHTYPE" speedFactor="0.97" vaporized=""/>
    <tripinfo id="WN.0" depart="2.50" departLane="2_1_1" departPos="5.10" departSpeed="0.00" departDelay="2.50" arrival="40.00" arrivalLane="1_5_2" arrivalPos="189.60" arrivalSpeed="12.87" duration="37.50" routeLength="392.90" waitingTime="0.00" waitingCount="0" stopTime="0.00" timeLoss="6.36" rerouteNo="0" devices="tripinfo_WN.0 routing_WN.0" vType="DEFAULT_VEHTYPE" speedFactor="1.15" vaporized=""/>
    <tripinfo id="ES.0" depart="0.00" departLane="4_1_2" departPos="5.10" departSpeed="0.00" departDelay="0.00" arrival="42.00" arrivalLane="1_3_2" arrivalPos="189.60" arrivalSpeed="11.37" duration="42.00" routeLength="392.89" waitingTime="1.50" waitingCount="1" stopTime="0.00" timeLoss="6.97" rerouteNo="0" devices="tripinfo_ES.0 routing_ES.0" vType="DEFAULT_VEHTYPE" speedFactor="1.02" vaporized=""/>
    <tripinfo id="EW.0" depart="2.50" departLane="4_1_2" departPos="5.10" departSpeed="0.00" departDelay="2.50" arrival="44.50" arrivalLane="1_2_1" arrivalPos="186.40" arrivalSpeed="10.85" duration="42.00" routeLength="394.90" waitingTime="0.00" waitingCount="0" stopTime="0.00" timeLoss="5.23" rerouteNo="0" devices="tripinfo_EW.0 routing_EW.0" vType="DEFAULT_VEHTYPE" speedFactor="0.97" vaporized=""/>
    <tripinfo id="WS.0" depart="5.00" departLane="2_1_1" departPos="5.10" departSpeed="0.00" departDelay="5.00" arrival="47.50" arrivalLane="1_3_1" arrivalPos="189.60" arrivalSpeed="9.64" duration="42.50" routeLength="385.10" waitingTime="0.00" waitingCount="0" stopTime="0.00" timeLoss="3.96" rerouteNo="0" devices="tripinfo_WS.0 routing_WS.0" vType="DEFAULT_VEHTYPE" speedFactor="0.91" vaporized=""/>
    <tripinfo id="NS.0" depart="0.00" departLane="5_1_1" departPos="5.10" departSpeed="0.00" departDelay="0.00" arrival="53.00" arrivalLane="1_3_1" arrivalPos="189.60" arrivalSpeed="12.43" duration="53.00" routeLength="395.22" waitingTime="9.00" waitingCount="3" stopTime="0.00" timeLoss="20.88" rerouteNo="0" devices="tripinfo_NS.0 routing_NS.0" vType="DEFAULT_VEHTYPE" speedFactor="1.11" vaporized=""/>
    <tripinfo id="SE.0" depart="0.00" departLane="3_1_1" departPos="5.10" departSpeed="0.00" departDelay="0.00" arrival="54.00" arrivalLane="1_4_1" arrivalPos="186.40" arrivalSpeed="11.02" duration="54.00" routeLength="379.93" waitingTime="13.00" waitingCount="1" stopTime="0.00" timeLoss="19.22" rerouteNo="0" devices="tripinfo_SE.0 routing_SE.0" vType="DEFAULT_VEHTYPE" speedFactor="0.99" vaporized=""/>
    <tripinfo id="SN.0" depart="0.00" departLane="3_1_2" departPos="5.10" departSpeed="0.00" departDelay="0.00" arrival="54.00" arrivalLane="1_5_1" arrivalPos="189.60" arrivalSpeed="11.65" duration="54.00" routeLength="395.22" waitingTime="9.00" waitingCount="2" stopTime="0.00" timeLoss="19.75" rerouteNo="0" devices="tripinfo_SN.0 routing_SN.0" vType="DEFAULT_VEHTYPE" speedFactor="1.04" vaporized=""/>
    <tripinfo id="NE.0" depart="0.00" departLane="5_1_3" departPos="5.10" departSpeed="0.00" departDelay="0.00" arrival="56.00" arrivalLane="1_4_2" arrivalPos="186.40" arrivalSpeed="13.00" duration="56.00" routeLength="392.89" waitingTime="10.50" waitingCount="3" stopTime="0.00" timeLoss="27.17" rerouteNo="0" devices="tripinfo_NE.0 routing_NE.0" vType="DEFAULT_VEHTYPE" speedFactor="1.24" vaporized=""/>
    <tripinfo id="NW.0" depart="2.50" departLane="5_1_1" departPos="5.10" departSpeed="0.00" departDelay="2.50" arrival="62.00" arrivalLane="1_2_1" arrivalPos="186.40" arrivalSpeed="11.75" duration="59.50" routeLength="382.62" waitingTime="10.50" waitingCount="2" stopTime="0.00" timeLoss="27.40" rerouteNo="0" devices="tripinfo_NW.0 routing_NW.0" vType="DEFAULT_VEHTYPE" speedFactor="1.09" vaporized=""/>
    <tripinfo id="SW.0" depart="0.00" departLane="3_1_3" departPos="5.10" departSpeed="0.00" departDelay="0.00" arrival="63.50" arrivalLane="1_2_1" arrivalPos="186.40" arrivalSpeed="12.78" duration="63.50" routeLength="392.89" waitingTime="15.50" waitingCount="3" stopTime="0.00" timeLoss="32.24" rerouteNo="0" devices="tripinfo_SW.0 routing_SW.0" vType="DEFAULT_VEHTYPE" speedFactor="1.14" vaporized=""/>
    <tripinfo id="NS.1" depart="23.50" departLane="5_1_2" departPos="5.10" departSpeed="0.00" departDelay="0.06" arrival="68.50" arrivalLane="1_3_1" arrivalPos="189.60" arrivalSpeed="10.48" duration="45.00" routeLength="395.22" waitingTime="0.50" waitingCount="1" stopTime="0.00" timeLoss="7.72" rerouteNo="0" devices="tripinfo_NS.1 routing_NS.1" vType="DEFAULT_VEHTYPE" speedFactor="0.96" vaporized=""/>
    <tripinfo id="SN.1" depart="34.50" departLane="3_1_1" departPos="5.10" departSpeed="0.00" departDelay="0.41" arrival="79.00" arrivalLane="1_5_1" arrivalPos="189.60" arrivalSpeed="11.14" duration="44.50" routeLength="395.22" waitingTime="2.50" waitingCount="1" stopTime="0.00" timeLoss="10.26" rerouteNo="0" devices="tripinfo_SN.1 routing_SN.1" vType="DEFAULT_VEHTYPE" speedFactor="1.04" vaporized=""/>
    <tripinfo id="NS.2" depart="47.00" departLane="5_1_1" departPos="5.10" departSpeed="0.00" departDelay="0.12" arrival="91.00" arrivalLane="1_3_1" arrivalPos="189.60" arrivalSpeed="9.32" duration="44.00" routeLength="395.22" waitingTime="0.00" waitingCount="0" stopTime="0.00" timeLoss="3.66" rerouteNo="0" devices="tripinfo_NS.2 routing_NS.2" vType="DEFAULT_VEHTYPE" speedFactor="0.88" vaporized=""/>
    <tripinfo id="NW.1" depart="62.50" departLane="5_1_1" departPos="5.10" departSpeed="0.00" departDelay="0.00" arrival="99.50" arrivalLane="1_2_1" arrivalPos="186.40" arrivalSpeed="12.27" duration="37.00" routeLength="382.62" waitingTime="0.00" waitingCount="0" stopTime="0.00" timeLoss="5.25" rerouteNo="0" devices="tripinfo_NW.1 routing_NW.1" vType="DEFAULT_VEHTYPE" speedFactor="1.10" vaporized=""/>
    <tripinfo id="SE.1" depart="68.50" departLane="3_1_1" departPos="5.10" departSpeed="0.00" departDelay="0.32" arrival="113.00" arrivalLane="1_4_1" arrivalPos="186.40" arrivalSpeed="10.09" duration="44.50" routeLength="379.93" waitingTime="1.50" waitingCount="1" stopTime="0.00" timeLoss="8.07" rerouteNo="0" devices="tripinfo_SE.1 routing_SE.1" vType="DEFAULT_VEHTYPE" speedFactor="0.95" vaporized=""/>
    <tripinfo id="SN.2" depart="68.50" departLane="3_1_2" departPos="5.10" departSpeed="0.00" departDelay="0.32" arrival="113.00" arrivalLane="1_5_1" arrivalPos="189.60" arrivalSpeed="10.82" duration="44.50" routeLength="395.22" waitingTime="3.00" waitingCount="1" stopTime="0.00" timeLoss="9.57" rerouteNo="0" devices="tripinfo_SN.2 routing_SN.2" vType="DEFAULT_VEHTYPE" speedFactor="1.01" vaporized=""/>
    <tripinfo id="NS.3" depart="70.50" departLane="5_1_2" departPos="5.10" departSpeed="0.00" departDelay="0.19" arrival="114.00" arrivalLane="1_3_1" arrivalPos="189.60" arrivalSpeed="10.50" duration="43.50" routeLength="395.22" waitingTime="0.00" waitingCount="0" stopTime="0.00" timeLoss="6.86" rerouteNo="0" devices="tripinfo_NS.3 routing_NS.3" vType="DEFAULT_VEHTYPE" speedFactor="0.97" vaporized=""/>
    <tripinfo id="WE.1" depart="63.50" departLane="2_1_1" departPos="5.10" departSpeed="0.00" departDelay="1.00" arrival="124.00" arrivalLane="1_4_1" arrivalPos="186.40" arrivalSpeed="12.51" duration="60.50" routeLength="395.13" waitingTime="21.00" waitingCount="1" stopTime="0.00" timeLoss="29.07" rerouteNo="0" devices="tripinfo_WE.1 routing_WE.1" vType="DEFAULT_VEHTYPE" speedFactor="1.13" vaporized=""/>
    <tripinfo id="WS.1" depart="83.50" departLane="2_1_1" departPos="5.10" departSpeed="0.00" departDelay="0.17" arrival="127.50" arrivalLane="1_3_1" arrivalPos="189.60" arrivalSpeed="10.83" duration="44.00" routeLength="385.10" waitingTime="0.00" waitingCount="0" stopTime="0.00" timeLoss="8.51" rerouteNo="0" devices="tripinfo_WS.1 routing_WS.1" vType="DEFAULT_VEHTYPE" speedFactor="0.99" vaporized=""/>
    <tripinfo id="NS.4" depart="94.00" departLane="5_1_1" departPos="5.10" departSpeed="0.00" departDelay="0.25" arrival="136.00" arrivalLane="1_3_1" arrivalPos="189.60" arrivalSpeed="11.47" duration="42.00" routeLength="395.22" waitingTime="1.00" waitingCount="1" stopTime="0.00" timeLoss="7.46" rerouteNo="0" devices="tripinfo_NS.4 routing_NS.4" vType="DEFAULT_VEHTYPE" speedFactor="1.02" vaporized=""/>
    <tripinfo id="SN.3" depart="102.50" departLane="3_1_1" departPos="5.10" departSpeed="0.00" departDelay="0.23" arrival="149.50" arrivalLane="1_5_1" arrivalPos="189.60" arrivalSpeed="11.22" duration="47.00" routeLength="395.22" waitingTime="4.50" waitingCount="1" stopTime="0.00" timeLoss="11.89" rerouteNo="0" devices="tripinfo_SN.3 routing_SN.3" vType="DEFAULT_VEHTYPE" speedFactor="1.01" vaporized=""/>
    <tripinfo id="NS.5" depart="117.50" departLane="5_1_1" departPos="5.10" departSpeed="0.00" departDelay="0.31" arrival="156.50" arrivalLane="1_3_1" arrivalPos="189.60" arrivalSpeed="10.89" duration="39.00" routeLength="395.22" waitingTime="0.00" waitingCount="0" stopTime="0.00" timeLoss="2.29" rerouteNo="0" devices="tripinfo_NS.5 routing_NS.5" vType="DEFAULT_VEHTYPE" speedFactor="0.97" vaporized=""/>
    <tripinfo id="NW.2" depart="125.00" departLane="5_1_1" departPos="5.10" departSpeed="0.00" departDelay="0.00" arrival="162.50" arrivalLane="1_2_1" arrivalPos="186.40" arrivalSpeed="11.65" duration="37.50" routeLength="382.62" waitingTime="0.00" waitingCount="0" stopTime="0.00" timeLoss="3.84" rerouteNo="0" devices="tripinfo_NW.2 routing_NW.2" vType="DEFAULT_VEHTYPE" speedFactor="1.04" vaporized=""/>
    <personinfo id="person_SE_diag.0" depart="2.00" type="DEFAULT_PEDTYPE" speedFactor="0.90" duration="166.00" waitingTime="0.00" timeLoss="16.12" traveltime="166.00">
        <walk depart="2.00" departPos="100.00" arrival="168.00" arrivalPos="93.20" duration="166.00" routeLength="187.66" timeLoss="16.12" maxSpeed="1.25"/>
    </personinfo>
    <tripinfo id="SE.2" depart="136.50" departLane="3_1_1" departPos="5.10" departSpeed="0.00" departDelay="0.14" arrival="172.50" arrivalLane="1_4_1" arrivalPos="186.40" arrivalSpeed="12.45" duration="36.00" routeLength="379.93" waitingTime="0.00" waitingCount="0" stopTime="0.00" timeLoss="4.90" rerouteNo="0" devices="tripinfo_SE.2 routing_SE.2" vType="DEFAULT_VEHTYPE" speedFactor="1.11" vaporized=""/>
    <tripinfo id="SN.4" depart="136.50" departLane="3_1_2" departPos="5.10" departSpeed="0.00" departDelay="0.14" arrival="178.00" arrivalLane="1_5_1" arrivalPos="189.60" arrivalSpeed="10.30" duration="41.50" routeLength="395.22" waitingTime="0.00" waitingCount="0" stopTime="0.00" timeLoss="3.46" rerouteNo="0" devices="tripinfo_SN.4 routing_SN.4" vType="DEFAULT_VEHTYPE" speedFactor="0.93" vaporized=""/>
    <personinfo id="person_EW_n.0" depart="15.50" type="DEFAULT_PEDTYPE" speedFactor="1.17" duration="167.50" waitingTime="0.00" timeLoss="38.05" traveltime="167.50">
        <walk depart="15.50" departPos="100.00" arrival="183.00" arrivalPos="93.20" duration="167.50" routeLength="210.56" timeLoss="38.05" maxSpeed="1.63"/>
    </personinfo>
    <tripinfo id="NS.6" depart="141.00" departLane="5_1_2" departPos="5.10" departSpeed="0.00" departDelay="0.37" arrival="183.50" arrivalLane="1_3_1" arrivalPos="189.60" arrivalSpeed="9.83" duration="42.50" routeLength="395.22" waitingTime="0.00" waitingCount="0" stopTime="0.00" timeLoss="2.06" rerouteNo="0" devices="tripinfo_NS.6 routing_NS.6" vType="DEFAULT_VEHTYPE" speedFactor="0.88" vaporized=""/>
    <personinfo id="person_WE_n.0" depart="12.50" type="DEFAULT_PEDTYPE" speedFactor="1.09" duration="176.50" waitingTime="0.00" timeLoss="28.69" traveltime="176.50">
        <walk depart="12.50" departPos="100.00" arrival="189.00" arrivalPos="93.20" duration="176.50" routeLength="224.16" timeLoss="28.69" maxSpeed="1.52"/>
    </personinfo>
    <tripinfo id="WE.2" depart="125.00" departLane="2_1_1" departPos="5.10" departSpeed="0.00" departDelay="0.00" arrival="189.00" arrivalLane="1_4_1" arrivalPos="186.40" arrivalSpeed="12.77" duration="64.00" routeLength="395.13" waitingTime="24.00" waitingCount="1" stopTime="0.00" timeLoss="32.59" rerouteNo="0" devices="tripinfo_WE.2 routing_WE.2" vType="DEFAULT_VEHTYPE" speedFactor="1.14" vaporized=""/>
    <personinfo id="person_EW_n.1" depart="29.00" type="DEFAULT_PEDTYPE" speedFactor="1.04" duration="164.50" waitingTime="0.00" timeLoss="18.73" traveltime="164.50">
        <walk depart="29.00" departPos="100.00" arrival="193.50" arrivalPos="93.20" duration="164.50" routeLength="210.56" timeLoss="18.73" maxSpeed="1.44"/>
    </personinfo>
    <personinfo id="person_WE_s.0" depart="2.00" type="DEFAULT_PEDTYPE" speedFactor="0.98" duration="195.00" waitingTime="0.00" timeLoss="40.50" traveltime="195.00">
        <walk depart="2.00" departPos="100.00" arrival="197.00" arrivalPos="93.20" duration="195.00" routeLength="209.26" timeLoss="40.50" maxSpeed="1.35"/>
    </personinfo>
    <tripinfo id="NS.7" depart="164.50" departLane="5_1_1" departPos="5.10" departSpeed="0.00" departDelay="0.43" arrival="205.50" arrivalLane="1_3_1" arrivalPos="189.60" arrivalSpeed="10.81" duration="41.00" routeLength="395.22" waitingTime="0.00" waitingCount="0" stopTime="0.00" timeLoss="5.12" rerouteNo="0" devices="tripinfo_NS.7 routing_NS.7" vType="DEFAULT_VEHTYPE" speedFactor="0.99" vaporized=""/>
    <personinfo id="person_NS_e.0" depart="12.50" type="DEFAULT_PEDTYPE" speedFactor="0.96" duration="197.00" waitingTime="0.00" timeLoss="31.61" traveltime="197.00">
        <walk depart="12.50" departPos="100.00" arrival="209.50" arrivalPos="94.80" duration="197.00" routeLength="219.53" timeLoss="31.61" maxSpeed="1.33"/>
    </personinfo>
    <personinfo id="person_NE_diag.0" depart="21.50" type="DEFAULT_PEDTYPE" speedFactor="1.00" duration="192.50" waitingTime="0.00" timeLoss="28.55" traveltime="192.50">
        <walk depart="21.50" departPos="100.00" arrival="214.00" arrivalPos="93.20" duration="192.50" routeLength="228.35" timeLoss="28.55" maxSpeed="1.39"/>
    </personinfo>
    <tripinfo id="SN.5" depart="170.50" departLane="3_1_1" departPos="5.10" departSpeed="0.00" departDelay="0.05" arrival="214.50" arrivalLane="1_5_1" arrivalPos="189.60" arrivalSpeed="9.73" duration="44.00" routeLength="395.22" waitingTime="0.00" waitingCount="0" stopTime="0.00" timeLoss="3.49" rerouteNo="0" devices="tripinfo_SN.5 routing_SN.5" vType="DEFAULT_VEHTYPE" speedFactor="0.88" vaporized=""/>
    <personinfo id="person_SE_diag.1" depart="66.50" type="DEFAULT_PEDTYPE" speedFactor="1.00" duration="150.50" waitingTime="0.00" timeLoss="15.23" traveltime="150.50">
        <walk depart="66.50" departPos="100.00" arrival="217.00" arrivalPos="93.20" duration="150.50" routeLength="187.66" timeLoss="15.23" maxSpeed="1.39"/>
    </personinfo>
    <personinfo id="person_NW_diag.0" depart="58.50" type="DEFAULT_PEDTYPE" speedFactor="0.93" duration="166.00" waitingTime="0.00" timeLoss="17.95" traveltime="166.00">
        <walk depart="58.50" departPos="100.00" arrival="224.50" arrivalPos="93.20" duration="166.00" routeLength="190.90" timeLoss="17.95" maxSpeed="1.29"/>
    </personinfo>
    <tripinfo id="NE.1" depart="187.50" departLane="5_1_3" departPos="5.10" departSpeed="0.00" departDelay="0.00" arrival="228.00" arrivalLane="1_4_2" arrivalPos="186.40" arrivalSpeed="13.00" duration="40.50" routeLength="392.89" waitingTime="0.00" waitingCount="0" stopTime="0.00" timeLoss="12.94" rerouteNo="0" devices="tripinfo_NE.1 routing_NE.1" vType="DEFAULT_VEHTYPE" speedFactor="1.30" vaporized=""/>
    <tripinfo id="NW.3" depart="187.50" departLane="5_1_1" departPos="5.10" departSpeed="0.00" departDelay="0.00" arrival="229.00" arrivalLane="1_2_1" arrivalPos="186.40" arrivalSpeed="11.36" duration="41.50" routeLength="382.62" waitingTime="0.00" waitingCount="0" stopTime="0.00" timeLoss="6.88" rerouteNo="0" devices="tripinfo_NW.3 routing_NW.3" vType="DEFAULT_VEHTYPE" speedFactor="1.01" vaporized=""/>
    <tripinfo id="NS.8" depart="188.00" departLane="5_1_2" departPos="5.10" departSpeed="0.00" departDelay="0.50" arrival="239.00" arrivalLane="1_3_1" arrivalPos="189.60" arrivalSpeed="8.13" duration="51.00" routeLength="395.22" waitingTime="0.00" waitingCount="0" stopTime="0.00" timeLoss="3.74" rerouteNo="0" devices="tripinfo_NS.8 routing_NS.8" vType="DEFAULT_VEHTYPE" speedFactor="0.75" vaporized=""/>
    <tripinfo id="EN.1" depart="187.50" departLane="4_1_1" departPos="5.10" departSpeed="0.00" departDelay="0.00" arrival="240.50" arrivalLane="1_5_1" arrivalPos="189.60" arrivalSpeed="7.87" duration="53.00" routeLength="382.62" waitingTime="0.00" waitingCount="0" stopTime="0.00" timeLoss="4.08" rerouteNo="0" devices="tripinfo_EN.1 routing_EN.1" vType="DEFAULT_VEHTYPE" speedFactor="0.71" vaporized=""/>
    <tripinfo id="EW.1" depart="187.50" departLane="4_1_2" departPos="5.10" departSpeed="0.00" departDelay="0.00" arrival="242.50" arrivalLane="1_2_1" arrivalPos="186.40" arrivalSpeed="10.80" duration="55.00" routeLength="394.90" waitingTime="12.00" waitingCount="1" stopTime="0.00" timeLoss="18.13" rerouteNo="0" devices="tripinfo_EW.1 routing_EW.1" vType="DEFAULT_VEHTYPE" speedFactor="0.96" vaporized=""/>
    <personinfo id="person_WE_s.2" depart="64.50" type="DEFAULT_PEDTYPE" speedFactor="1.20" duration="182.00" waitingTime="0.00" timeLoss="56.49" traveltime="182.00">
        <walk depart="64.50" departPos="100.00" arrival="246.50" arrivalPos="93.20" duration="182.00" routeLength="209.26" timeLoss="56.49" maxSpeed="1.67"/>
    </personinfo>
    <tripinfo id="WS.2" depart="167.00" departLane="2_1_1" departPos="5.10" departSpeed="0.00" departDelay="0.33" arrival="253.00" arrivalLane="1_3_1" arrivalPos="189.60" arrivalSpeed="10.97" duration="86.00" routeLength="385.10" waitingTime="40.50" waitingCount="2" stopTime="0.00" timeLoss="49.96" rerouteNo="0" devices="tripinfo_WS.2 routing_WS.2" vType="DEFAULT_VEHTYPE" speedFactor="0.98" vaporized=""/>
    <personinfo id="person_WE_s.1" depart="54.50" type="DEFAULT_PEDTYPE" speedFactor="1.08" duration="199.00" waitingTime="0.00" timeLoss="59.84" traveltime="199.00">
        <walk depart="54.50" departPos="100.00" arrival="253.50" arrivalPos="93.20" duration="199.00" routeLength="209.26" timeLoss="59.84" maxSpeed="1.50"/>
    </personinfo>
    <tripinfo id="SN.6" depart="205.00" departLane="3_1_2" departPos="5.10" departSpeed="0.00" departDelay="0.45" arrival="253.50" arrivalLane="1_5_1" arrivalPos="189.60" arrivalSpeed="11.44" duration="48.50" routeLength="395.22" waitingTime="7.00" waitingCount="1" stopTime="0.00" timeLoss="14.57" rerouteNo="0" devices="tripinfo_SN.6 routing_SN.6" vType="DEFAULT_VEHTYPE" speedFactor="1.04" vaporized=""/>
    <personinfo id="person_WE_n.2" depart="80.00" type="DEFAULT_PEDTYPE" speedFactor="1.09" duration="175.00" waitingTime="0.00" timeLoss="26.66" traveltime="175.00">
        <walk depart="80.00" departPos="100.00" arrival="255.00" arrivalPos="93.20" duration="175.00" routeLength="224.16" timeLoss="26.66" maxSpeed="1.51"/>
    </personinfo>
    <personinfo id="person_WE_s.3" depart="77.50" type="DEFAULT_PEDTYPE" speedFactor="1.05" duration="179.00" waitingTime="0.00" timeLoss="34.93" traveltime="179.00">
        <walk depart="77.50" departPos="100.00" arrival="256.50" arrivalPos="93.20" duration="179.00" routeLength="209.26" timeLoss="34.93" maxSpeed="1.45"/>
    </personinfo>
    <personinfo id="person_SE_diag.2" depart="126.50" type="DEFAULT_PEDTYPE" speedFactor="1.15" duration="130.50" waitingTime="0.00" timeLoss="12.86" traveltime="130.50">
        <walk depart="126.50" departPos="100.00" arrival="257.00" arrivalPos="93.20" duration="130.50" routeLength="187.66" timeLoss="12.86" maxSpeed="1.60"/>
    </personinfo>
    <tripinfo id="NS.9" depart="211.00" departLane="5_1_2" departPos="5.10" departSpeed="0.00" departDelay="0.06" arrival="257.00" arrivalLane="1_3_1" arrivalPos="189.60" arrivalSpeed="10.72" duration="46.00" routeLength="395.22" waitingTime="2.50" waitingCount="1" stopTime="0.00" timeLoss="9.14" rerouteNo="0" devices="tripinfo_NS.9 routing_NS.9" vType="DEFAULT_VEHTYPE" speedFactor="0.96" vaporized=""/>
    <tripinfo id="SE.3" depart="205.00" departLane="3_1_1" departPos="5.10" departSpeed="0.00" departDelay="0.45" arrival="262.50" arrivalLane="1_4_2" arrivalPos="186.40" arrivalSpeed="12.11" duration="57.50" routeLength="379.93" waitingTime="16.50" waitingCount="3" stopTime="0.00" timeLoss="26.90" rerouteNo="0" devices="tripinfo_SE.3 routing_SE.3" vType="DEFAULT_VEHTYPE" speedFactor="1.13" vaporized=""/>
    <personinfo id="person_NW_diag.1" depart="89.50" type="DEFAULT_PEDTYPE" speedFactor="0.88" duration="173.50" waitingTime="0.00" timeLoss="17.06" traveltime="173.50">
        <walk depart="89.50" departPos="100.00" arrival="263.00" arrivalPos="93.20" duration="173.50" routeLength="190.90" timeLoss="17.06" maxSpeed="1.22"/>
    </personinfo>
    <tripinfo id="WE.3" depart="187.50" departLane="2_1_1" departPos="5.10" departSpeed="0.00" departDelay="0.00" arrival="265.00" arrivalLane="1_4_1" arrivalPos="186.40" arrivalSpeed="8.86" duration="77.50" routeLength="395.13" waitingTime="20.00" waitingCount="3" stopTime="0.00" timeLoss="34.96" rerouteNo="0" devices="tripinfo_WE.3 routing_WE.3" vType="DEFAULT_VEHTYPE" speedFactor="0.84" vaporized=""/>
    <personinfo id="person_EW_n.3" depart="65.50" type="DEFAULT_PEDTYPE" speedFactor="0.97" duration="200.50" waitingTime="0.00" timeLoss="44.67" traveltime="200.50">
        <walk depart="65.50" departPos="100.00" arrival="266.00" arrivalPos="93.20" duration="200.50" routeLength="210.56" timeLoss="44.67" maxSpeed="1.35"/>
    </personinfo>
    <personinfo id="person_SW_diag.0" depart="59.00" type="DEFAULT_PEDTYPE" speedFactor="0.97" duration="207.00" waitingTime="0.00" timeLoss="36.15" traveltime="207.00">
        <walk depart="59.00" departPos="100.00" arrival="266.00" arrivalPos="93.20" duration="207.00" routeLength="230.53" timeLoss="36.15" maxSpeed="1.35"/>
    </personinfo>
    <personinfo id="person_EW_n.2" depart="36.50" type="DEFAULT_PEDTYPE" speedFactor="0.96" duration="231.00" waitingTime="0.00" timeLoss="73.23" traveltime="231.00">
        <walk depart="36.50" departPos="100.00" arrival="267.50" arrivalPos="93.20" duration="231.00" routeLength="210.56" timeLoss="73.23" maxSpeed="1.33"/>
    </personinfo>
    <personinfo id="person_NE_diag.2" depart="102.50" type="DEFAULT_PEDTYPE" speedFactor="1.09" duration="167.00" waitingTime="0.00" timeLoss="19.40" traveltime="167.00">
        <walk depart="102.50" departPos="100.00" arrival="269.50" arrivalPos="93.20" duration="167.00" routeLength="223.02" timeLoss="19.40" maxSpeed="1.51"/>
    </personinfo>
    <personinfo id="person_WE_n.1" depart="22.50" type="DEFAULT_PEDTYPE" speedFactor="0.93" duration="248.50" waitingTime="0.00" timeLoss="75.61" traveltime="248.50">
        <walk depart="22.50" departPos="100.00" arrival="271.00" arrivalPos="93.20" duration="248.50" routeLength="224.16" timeLoss="75.61" maxSpeed="1.30"/>
    </personinfo>
    <personinfo id="person_NE_diag.1" depart="40.50" type="DEFAULT_PEDTYPE" speedFactor="0.90" duration="231.00" waitingTime="0.00" timeLoss="49.87" traveltime="231.00">
        <walk depart="40.50" departPos="100.00" arrival="271.50" arrivalPos="93.20" duration="231.00" routeLength="225.71" timeLoss="49.87" maxSpeed="1.25"/>
    </personinfo>
    <personinfo id="person_EW_n.4" depart="85.50" type="DEFAULT_PEDTYPE" speedFactor="0.92" duration="186.50" waitingTime="0.00" timeLoss="21.46" traveltime="186.50">
        <walk depart="85.50" departPos="100.00" arrival="272.00" arrivalPos="93.20" duration="186.50" routeLength="210.56" timeLoss="21.46" maxSpeed="1.28"/>
    </personinfo>
    <personinfo id="person_EW_s.0" depart="31.00" type="DEFAULT_PEDTYPE" speedFactor="0.93" duration="241.00" waitingTime="0.00" timeLoss="68.04" traveltime="241.00">
        <walk depart="31.00" departPos="100.00" arrival="272.00" arrivalPos="93.20" duration="241.00" routeLength="222.86" timeLoss="68.04" maxSpeed="1.29"/>
    </personinfo>
    <personinfo id="person_EW_n.5" depart="88.00" type="DEFAULT_PEDTYPE" speedFactor="0.98" duration="184.50" waitingTime="0.00" timeLoss="30.57" traveltime="184.50">
        <walk depart="88.00" departPos="100.00" arrival="272.50" arrivalPos="93.20" duration="184.50" routeLength="210.56" timeLoss="30.57" maxSpeed="1.37"/>
    </personinfo>
    <tripinfo id="NS.10" depart="234.50" departLane="5_1_2" departPos="5.10" departSpeed="0.00" departDelay="0.12" arrival="273.50" arrivalLane="1_3_1" arrivalPos="189.60" arrivalSpeed="11.00" duration="39.00" routeLength="395.22" waitingTime="0.00" waitingCount="0" stopTime="0.00" timeLoss="7.56" rerouteNo="0" devices="tripinfo_NS.10 routing_NS.10" vType="DEFAULT_VEHTYPE" speedFactor="1.13" vaporized=""/>
    <personinfo id="person_SN_e.0" depart="113.00" type="DEFAULT_PEDTYPE" speedFactor="1.04" duration="162.00" waitingTime="0.00" timeLoss="17.21" traveltime="162.00">
        <walk depart="113.00" departPos="100.00" arrival="275.00" arrivalPos="94.80" duration="162.00" routeLength="209.13" timeLoss="17.21" maxSpeed="1.44"/>
    </personinfo>
    <tripinfo id="SN.7" depart="239.00" departLane="3_1_1" departPos="5.10" departSpeed="0.00" departDelay="0.36" arrival="284.00" arrivalLane="1_5_1" arrivalPos="189.60" arrivalSpeed="10.66" duration="45.00" routeLength="395.22" waitingTime="1.00" waitingCount="1" stopTime="0.00" timeLoss="8.29" rerouteNo="0" devices="tripinfo_SN.7 routing_SN.7" vType="DEFAULT_VEHTYPE" speedFactor="0.96" vaporized=""/>
    <tripinfo id="NW.4" depart="250.00" departLane="5_1_1" departPos="5.10" departSpeed="0.00" departDelay="0.00" arrival="289.50" arrivalLane="1_2_1" arrivalPos="186.40" arrivalSpeed="10.98" duration="39.50" routeLength="382.62" waitingTime="0.00" waitingCount="0" stopTime="0.00" timeLoss="3.78" rerouteNo="0" devices="tripinfo_NW.4 routing_NW.4" vType="DEFAULT_VEHTYPE" speedFactor="0.98" vaporized=""/>
    <tripinfo id="NS.11" depart="258.00" departLane="5_1_2" departPos="5.10" departSpeed="0.00" departDelay="0.18" arrival="290.00" arrivalLane="1_3_2" arrivalPos="189.60" arrivalSpeed="13.57" duration="32.00" routeLength="395.22" waitingTime="0.00" waitingCount="0" stopTime="0.00" timeLoss="3.72" rerouteNo="0" devices="tripinfo_NS.11 routing_NS.11" vType="DEFAULT_VEHTYPE" speedFactor="1.26" vaporized=""/>
    <personinfo id="person_NS_e.1" depart="71.50" type="DEFAULT_PEDTYPE" speedFactor="0.82" duration="219.00" waitingTime="0.00" timeLoss="26.74" traveltime="219.00">
        <walk depart="71.50" departPos="100.00" arrival="290.50" arrivalPos="94.80" duration="219.00" routeLength="219.53" timeLoss="26.74" maxSpeed="1.14"/>
    </personinfo>
    <personinfo id="person_NW_diag.3" depart="160.50" type="DEFAULT_PEDTYPE" speedFactor="1.13" duration="136.00" waitingTime="0.00" timeLoss="14.03" traveltime="136.00">
        <walk depart="160.50" departPos="100.00" arrival="296.50" arrivalPos="93.20" duration="136.00" routeLength="190.90" timeLoss="14.03" maxSpeed="1.57"/>
    </personinfo>
    <personinfo id="person_NW_diag.2" depart="108.50" type="DEFAULT_PEDTYPE" speedFactor="0.80" duration="189.50" waitingTime="0.00" timeLoss="18.69" traveltime="189.50">
        <walk depart="108.50" departPos="100.00" arrival="298.00" arrivalPos="93.20" duration="189.50" routeLength="190.90" timeLoss="18.69" maxSpeed="1.12"/>
    </personinfo>
    <personinfo id="person_EW_n.8" depart="118.00" type="DEFAULT_PEDTYPE" speedFactor="1.12" duration="186.00" waitingTime="0.00" timeLoss="50.70" traveltime="186.00">
        <walk depart="118.00" departPos="100.00" arrival="304.00" arrivalPos="93.20" duration="186.00" routeLength="210.56" timeLoss="50.70" maxSpeed="1.56"/>
    </personinfo>