<?xml version="1.0" encoding="UTF-8"?>

<!-- generated on 2025-03-17 12:12:41 by Eclipse SUMO GUI Version 1.22.0
<sumoConfiguration xmlns:xsi="http://www.w3.org/2001/XMLSchema-instance" xsi:noNamespaceSchemaLocation="http://sumo.dlr.de/xsd/sumoConfiguration.xsd">

    <input>
        <net-file value="C:\Users\chris\PycharmProjects\UW_CET593_project2\environment/network_model/UW_intersection_pedestrian_X.net.xml"/>
        <route-files value="C:\Users\chris\PycharmProjects\UW_CET593_project2\environment/network_model/UW_IntersectionNormalDemand.rou.xml"/>
        <additional-files value="C:\Users\chris\PycharmProjects\UW_CET593_project2\environment/network_model/UW_intersection_Exclusive.add.xml"/>
    </input>

    <output>
        <queue-output value="C:\Users\chris\PycharmProjects\UW_CET593_project2\environment/simulation_data/UW_intersection/queues_multi_scale_symmetric_pene_50.xml"/>
        <tripinfo-output value="C:\Users\chris\PycharmProjects\UW_CET593_project2\environment/simulation_data/UW_intersection/tripinfo_multi_scale_symmetric_pene_50.xml"/>
    </output>

    <time>
        <begin value="0"/>
        <step-length value="0.5"/>
    </time>

    <processing>
        <waiting-time-memory value="1000"/>
    </processing>

    <report>
        <verbose value="true"/>
        <no-step-log value="true"/>
    </report>

    <traci_server>
        <remote-port value="56011"/>
    </traci_server>

    <gui_only>
        <start value="true"/>
    </gui_only>

</sumoConfiguration>
-->

<tripinfos xmlns:xsi="http://www.w3.org/2001/XMLSchema-instance" xsi:noNamespaceSchemaLocation="http://sumo.dlr.de/xsd/tripinfo_file.xsd">
    <tripinfo id="NS.0" depart="0.00" departLane="5_1_1" departPos="5.10" departSpeed="0.00" departDelay="0.00" arrival="37.00" arrivalLane="1_3_1" arrivalPos="189.60" arrivalSpeed="11.22" duration="37.00" routeLength="395.22" waitingTime="0.00" waitingCount="0" stopTime="0.00" timeLoss="3.61" rerouteNo="0" devices="tripinfo_NS.0 routing_NS.0" vType="DEFAULT_VEHTYPE" speedFactor="1.06" vaporized=""/>
    <tripinfo id="EN.0" depart="0.00" departLane="4_1_1" departPos="5.10" departSpeed="0.00" departDelay="0.00" arrival="38.00" arrivalLane="1_5_1" arrivalPos="189.60" arrivalSpeed="10.98" duration="38.00" routeLength="382.62" waitingTime="0.00" waitingCount="0" stopTime="0.00" timeLoss="2.59" rerouteNo="0" devices="tripinfo_EN.0 routing_EN.0" vType="DEFAULT_VEHTYPE" speedFactor="0.98" vaporized=""/>
    <tripinfo id="NE.0" depart="0.00" departLane="5_1_3" departPos="5.10" departSpeed="0.00" departDelay="0.00" arrival="41.50" arrivalLane="1_4_2" arrivalPos="186.40" arrivalSpeed="10.60" duration="41.50" routeLength="392.89" waitingTime="0.00" waitingCount="0" stopTime="0.00" timeLoss="4.08" rerouteNo="0" devices="tripinfo_NE.0 routing_NE.0" vType="DEFAULT_VEHTYPE" speedFactor="0.96" vaporized=""/>
    <tripinfo id="NW.0" depart="3.00" departLane="5_1_1" departPos="5.10" departSpeed="0.00" departDelay="3.00" arrival="42.50" arrivalLane="1_2_1" arrivalPos="186.40" arrivalSpeed="11.06" duration="39.50" routeLength="382.62" waitingTime="0.00" waitingCount="0" stopTime="0.00" timeLoss="4.39" rerouteNo="0" devices="tripinfo_NW.0 routing_NW.0" vType="DEFAULT_VEHTYPE" speedFactor="0.99" vaporized=""/>
    <tripinfo id="WE.0" depart="0.00" departLane="2_1_1" departPos="5.10" departSpeed="0.00" departDelay="0.00" arrival="45.50" arrivalLane="1_4_1" arrivalPos="186.40" arrivalSpeed="12.26" duration="45.50" routeLength="395.13" waitingTime="5.50" waitingCount="1" stopTime="0.00" timeLoss="12.90" rerouteNo="0" devices="tripinfo_WE.0 routing_WE.0" vType="DEFAULT_VEHTYPE" speedFactor="1.09" vaporized=""/>
    <tripinfo id="WN.0" depart="2.50" departLane="2_1_1" departPos="5.10" departSpeed="0.00" departDelay="2.50" arrival="47.00" arrivalLane="1_5_2" arrivalPos="189.60" arrivalSpeed="12.46" duration="44.50" routeLength="392.90" waitingTime="0.00" waitingCount="0" stopTime="0.00" timeLoss="12.67" rerouteNo="0" devices="tripinfo_WN.0 routing_WN.0" vType="DEFAULT_VEHTYPE" speedFactor="1.11" vaporized=""/>
    <tripinfo id="WS.0" depart="5.00" departLane="2_1_1" departPos="5.10" departSpeed="0.00" departDelay="5.00" arrival="49.00" arrivalLane="1_3_1" arrivalPos="189.60" arrivalSpeed="12.02" duration="44.00" routeLength="385.10" waitingTime="0.00" waitingCount="0" stopTime="0.00" timeLoss="11.51" rerouteNo="0" devices="tripinfo_WS.0 routing_WS.0" vType="DEFAULT_VEHTYPE" speedFactor="1.07" vaporized=""/>
    <tripinfo id="ES.0" depart="0.00" departLane="4_1_2" departPos="5.10" departSpeed="0.00" departDelay="0.00" arrival="49.50" arrivalLane="1_3_2" arrivalPos="189.60" arrivalSpeed="11.68" duration="49.50" routeLength="392.89" waitingTime="7.00" waitingCount="2" stopTime="0.00" timeLoss="15.47" rerouteNo="0" devices="tripinfo_ES.0 routing_ES.0" vType="DEFAULT_VEHTYPE" speedFactor="1.04" vaporized=""/>
    <tripinfo id="EW.0" depart="2.50" departLane="4_1_2" departPos="5.10" departSpeed="0.00" departDelay="2.50" arrival="53.00" arrivalLane="1_2_1" arrivalPos="186.40" arrivalSpeed="10.70" duration="50.50" routeLength="394.90" waitingTime="1.00" waitingCount="1" stopTime="0.00" timeLoss="14.52" rerouteNo="0" devices="tripinfo_EW.0 routing_EW.0" vType="DEFAULT_VEHTYPE" speedFactor="0.98" vaporized=""/>
    <tripinfo id="NS.1" depart="19.00" departLane="5_1_2" departPos="5.10" departSpeed="0.00" departDelay="0.25" arrival="56.00" arrivalLane="1_3_1" arrivalPos="189.60" arrivalSpeed="13.00" duration="37.00" routeLength="395.22" waitingTime="0.00" waitingCount="0" stopTime="0.00" timeLoss="7.45" rerouteNo="0" devices="tripinfo_NS.1 routing_NS.1" vType="DEFAULT_VEHTYPE" speedFactor="1.21" vaporized=""/>
    <tripinfo id="SE.0" depart="0.00" departLane="3_1_1" departPos="5.10" departSpeed="0.00" departDelay="0.00" arrival="58.50" arrivalLane="1_4_1" arrivalPos="186.40" arrivalSpeed="11.10" duration="58.50" routeLength="379.93" waitingTime="18.50" waitingCount="1" stopTime="0.00" timeLoss="23.49" rerouteNo="0" devices="tripinfo_SE.0 routing_SE.0" vType="DEFAULT_VEHTYPE" speedFactor="0.99" vaporized=""/>
    <tripinfo id="SN.0" depart="0.00" departLane="3_1_2" departPos="5.10" departSpeed="0.00" departDelay="0.00" arrival="59.50" arrivalLane="1_5_2" arrivalPos="189.60" arrivalSpeed="11.53" duration="59.50" routeLength="395.22" waitingTime="18.50" waitingCount="1" stopTime="0.00" timeLoss="25.79" rerouteNo="0" devices="tripinfo_SN.0 routing_SN.0" vType="DEFAULT_VEHTYPE" speedFactor="1.05" vaporized=""/>
    <tripinfo id="SW.0" depart="0.00" departLane="3_1_3" departPos="5.10" departSpeed="0.00" departDelay="0.00" arrival="61.50" arrivalLane="1_2_1" arrivalPos="186.40" arrivalSpeed="10.12" duration="61.50" routeLength="392.89" waitingTime="15.00" waitingCount="1" stopTime="0.00" timeLoss="22.32" rerouteNo="0" devices="tripinfo_SW.0 routing_SW.0" vType="DEFAULT_VEHTYPE" speedFactor="0.90" vaporized=""/>
    <tripinfo id="SN.1" depart="27.50" departLane="3_1_1" departPos="5.10" departSpeed="0.00" departDelay="0.23" arrival="66.50" arrivalLane="1_5_1" arrivalPos="189.60" arrivalSpeed="12.74" duration="39.00" routeLength="395.22" waitingTime="0.00" waitingCount="0" stopTime="0.00" timeLoss="7.99" rerouteNo="0" devices="tripinfo_SN.1 routing_SN.1" vType="DEFAULT_VEHTYPE" speedFactor="1.15" vaporized=""/>
    <tripinfo id="NS.2" depart="37.50" departLane="5_1_2" departPos="5.10" departSpeed="0.00" departDelay="0.00" arrival="73.50" arrivalLane="1_3_1" arrivalPos="189.60" arrivalSpeed="12.68" duration="36.00" routeLength="395.22" waitingTime="0.00" waitingCount="0" stopTime="0.00" timeLoss="4.82" rerouteNo="0" devices="tripinfo_NS.2 routing_NS.2" vType="DEFAULT_VEHTYPE" speedFactor="1.13" vaporized=""/>
    <tripinfo id="NW.1" depart="50.00" departLane="5_1_1" departPos="5.10" departSpeed="0.00" departDelay="0.00" arrival="90.50" arrivalLane="1_2_1" arrivalPos="186.40" arrivalSpeed="10.58" duration="40.50" routeLength="382.62" waitingTime="0.00" waitingCount="0" stopTime="0.00" timeLoss="4.46" rerouteNo="0" devices="tripinfo_NW.1 routing_NW.1" vType="DEFAULT_VEHTYPE" speedFactor="0.98" vaporized=""/>
    <tripinfo id="SN.2" depart="55.00" departLane="3_1_2" departPos="5.10" departSpeed="0.00" departDelay="0.45" arrival="95.00" arrivalLane="1_5_1" arrivalPos="189.60" arrivalSpeed="12.55" duration="40.00" routeLength="395.22" waitingTime="1.50" waitingCount="1" stopTime="0.00" timeLoss="9.46" rerouteNo="0" devices="tripinfo_SN.2 routing_SN.2" vType="DEFAULT_VEHTYPE" speedFactor="1.16" vaporized=""/>
    <tripinfo id="NS.3" depart="56.50" departLane="5_1_2" departPos="5.10" departSpeed="0.00" departDelay="0.25" arrival="99.00" arrivalLane="1_3_1" arrivalPos="189.60" arrivalSpeed="9.79" duration="42.50" routeLength="395.22" waitingTime="0.00" waitingCount="0" stopTime="0.00" timeLoss="2.08" rerouteNo="0" devices="tripinfo_NS.3 routing_NS.3" vType="DEFAULT_VEHTYPE" speedFactor="0.87" vaporized=""/>
    <tripinfo id="SE.1" depart="55.00" departLane="3_1_1" departPos="5.10" departSpeed="0.00" departDelay="0.46" arrival="101.00" arrivalLane="1_4_1" arrivalPos="186.40" arrivalSpeed="12.62" duration="46.00" routeLength="379.93" waitingTime="6.00" waitingCount="2" stopTime="0.00" timeLoss="15.59" rerouteNo="0" devices="tripinfo_SE.1 routing_SE.1" vType="DEFAULT_VEHTYPE" speedFactor="1.13" vaporized=""/>
    <tripinfo id="WE.1" depart="50.00" departLane="2_1_1" departPos="5.10" departSpeed="0.00" departDelay="0.00" arrival="103.00" arrivalLane="1_4_1" arrivalPos="186.40" arrivalSpeed="12.83" duration="53.00" routeLength="395.13" waitingTime="15.00" waitingCount="1" stopTime="0.00" timeLoss="23.08" rerouteNo="0" devices="tripinfo_WE.1 routing_WE.1" vType="DEFAULT_VEHTYPE" speedFactor="1.18" vaporized=""/>
    <tripinfo id="WS.1" depart="67.00" departLane="2_1_1" departPos="5.10" departSpeed="0.00" departDelay="0.33" arrival="119.00" arrivalLane="1_3_1" arrivalPos="189.60" arrivalSpeed="9.71" duration="52.00" routeLength="385.10" waitingTime="6.50" waitingCount="1" stopTime="0.00" timeLoss="11.32" rerouteNo="0" devices="tripinfo_WS.1 routing_WS.1" vType="DEFAULT_VEHTYPE" speedFactor="0.87" vaporized=""/>
    <tripinfo id="NS.4" depart="75.00" departLane="5_1_2" departPos="5.10" departSpeed="0.00" departDelay="0.00" arrival="121.50" arrivalLane="1_3_1" arrivalPos="189.60" arrivalSpeed="9.24" duration="46.50" routeLength="395.22" waitingTime="0.00" waitingCount="0" stopTime="0.00" timeLoss="3.41" rerouteNo="0" devices="tripinfo_NS.4 routing_NS.4" vType="DEFAULT_VEHTYPE" speedFactor="0.82" vaporized=""/>
    <tripinfo id="SN.3" depart="82.00" departLane="3_1_1" departPos="5.10" departSpeed="0.00" departDelay="0.18" arrival="123.00" arrivalLane="1_5_1" arrivalPos="189.60" arrivalSpeed="9.90" duration="41.00" routeLength="395.22" waitingTime="0.00" waitingCount="0" stopTime="0.00" timeLoss="3.34" rerouteNo="0" devices="tripinfo_SN.3 routing_SN.3" vType="DEFAULT_VEHTYPE" speedFactor="0.94" vaporized=""/>
    <tripinfo id="NS.5" depart="94.00" departLane="5_1_2" departPos="5.10" departSpeed="0.00" departDelay="0.25" arrival="133.50" arrivalLane="1_3_1" arrivalPos="189.60" arrivalSpeed="11.00" duration="39.50" routeLength="395.22" waitingTime="0.00" waitingCount="0" stopTime="0.00" timeLoss="4.16" rerouteNo="0" devices="tripinfo_NS.5 routing_NS.5" vType="DEFAULT_VEHTYPE" speedFactor="1.01" vaporized=""/>
    <tripinfo id="NW.2" depart="100.00" departLane="5_1_1" departPos="5.10" departSpeed="0.00" departDelay="0.00" arrival="141.00" arrivalLane="1_2_1" arrivalPos="186.40" arrivalSpeed="10.37" duration="41.00" routeLength="382.62" waitingTime="0.00" waitingCount="0" stopTime="0.00" timeLoss="3.22" rerouteNo="0" devices="tripinfo_NW.2 routing_NW.2" vType="DEFAULT_VEHTYPE" speedFactor="0.93" vaporized=""/>
    <personinfo id="person_NS_e.0" depart="5.50" type="DEFAULT_PEDTYPE" speedFactor="1.25" duration="142.50" waitingTime="0.00" timeLoss="16.07" traveltime="142.50">
        <walk depart="5.50" departPos="100.00" arrival="148.00" arrivalPos="94.80" duration="142.50" routeLength="219.53" timeLoss="16.07" maxSpeed="1.74"/>
    </personinfo>
    <tripinfo id="SN.4" depart="109.50" departLane="3_1_2" departPos="5.10" departSpeed="0.00" departDelay="0.41" arrival="150.50" arrivalLane="1_5_1" arrivalPos="189.60" arrivalSpeed="10.07" duration="41.00" routeLength="395.22" waitingTime="0.00" waitingCount="0" stopTime="0.00" timeLoss="1.69" rerouteNo="0" devices="tripinfo_SN.4 routing_SN.4" vType="DEFAULT_VEHTYPE" speedFactor="0.90" vaporized=""/>
    <tripinfo id="NS.6" depart="112.50" departLane="5_1_2" departPos="5.10" departSpeed="0.00" departDelay="0.00" arrival="151.50" arrivalLane="1_3_1" arrivalPos="189.60" arrivalSpeed="10.72" duration="39.00" routeLength="395.22" waitingTime="0.00" waitingCount="0" stopTime="0.00" timeLoss="2.05" rerouteNo="0" devices="tripinfo_NS.6 routing_NS.6" vType="DEFAULT_VEHTYPE" speedFactor="0.96" vaporized=""/>
    <tripinfo id="SE.2" depart="109.50" departLane="3_1_1" departPos="5.10" departSpeed="0.00" departDelay="0.41" arrival="153.50" arrivalLane="1_4_1" arrivalPos="186.40" arrivalSpeed="10.78" duration="44.00" routeLength="379.93" waitingTime="2.50" waitingCount="1" stopTime="0.00" timeLoss="9.45" rerouteNo="0" devices="tripinfo_SE.2 routing_SE.2" vType="DEFAULT_VEHTYPE" speedFactor="1.00" vaporized=""/>
    <personinfo id="person_NW_diag.0" depart="4.50" type="DEFAULT_PEDTYPE" speedFactor="0.98" duration="156.50" waitingTime="0.00" timeLoss="16.83" traveltime="156.50">
        <walk depart="4.50" departPos="100.00" arrival="161.00" arrivalPos="93.20" duration="156.50" routeLength="190.90" timeLoss="16.83" maxSpeed="1.37"/>
    </personinfo>
    <personinfo id="person_SW_diag.0" depart="30.00" type="DEFAULT_PEDTYPE" speedFactor="1.30" duration="136.50" waitingTime="0.00" timeLoss="15.39" traveltime="136.50">
        <walk depart="30.00" departPos="100.00" arrival="166.50" arrivalPos="93.20" duration="136.50" routeLength="218.63" timeLoss="15.39" maxSpeed="1.81"/>
    </personinfo>
    <personinfo id="person_NW_diag.1" depart="20.50" type="DEFAULT_PEDTYPE" speedFactor="1.00" duration="153.00" waitingTime="0.00" timeLoss="14.99" traveltime="153.00">
        <walk depart="20.50" departPos="100.00" arrival="173.50" arrivalPos="93.20" duration="153.00" routeLength="190.90" timeLoss="14.99" maxSpeed="1.38"/>
    </personinfo>
    <personinfo id="person_WE_s.0" depart="2.00" type="DEFAULT_PEDTYPE" speedFactor="0.98" duration="175.50" waitingTime="0.00" timeLoss="21.00" traveltime="175.50">
        <walk depart="2.00" departPos="100.00" arrival="177.50" arrivalPos="93.20" duration="175.50" routeLength="209.26" timeLoss="21.00" maxSpeed="1.35"/>
    </personinfo>
    <personinfo id="person_SN_w.0" depart="3.00" type="DEFAULT_PEDTYPE" speedFactor="1.00" duration="174.50" waitingTime="0.00" timeLoss="17.98" traveltime="174.50">
        <walk depart="3.00" departPos="100.00" arrival="177.50" arrivalPos="94.80" duration="174.50" routeLength="217.89" timeLoss="17.98" maxSpeed="1.39"/>
    </personinfo>
    <personinfo id="person_SE_diag.0" depart="25.50" type="DEFAULT_PEDTYPE" speedFactor="0.96" duration="155.50" waitingTime="0.00" timeLoss="15.37" traveltime="155.50">
        <walk depart="25.50" departPos="100.00" arrival="181.00" arrivalPos="93.20" duration="155.50" routeLength="187.66" timeLoss="15.37" maxSpeed="1.34"/>
    </personinfo>
    <personinfo id="person_SE_diag.1" depart="44.00" type="DEFAULT_PEDTYPE" speedFactor="1.00" duration="151.00" waitingTime="0.00" timeLoss="15.37" traveltime="151.00">
        <walk depart="44.00" departPos="100.00" arrival="195.00" arrivalPos="93.20" duration="151.00" routeLength="187.66" timeLoss="15.37" maxSpeed="1.38"/>
    </personinfo>
    <personinfo id="person_NW_diag.2" depart="32.00" type="DEFAULT_PEDTYPE" speedFactor="0.92" duration="167.00" waitingTime="0.00" timeLoss="18.00" traveltime="167.00">
        <walk depart="32.00" departPos="100.00" arrival="199.00" arrivalPos="93.20" duration="167.00" routeLength="190.90" timeLoss="18.00" maxSpeed="1.28"/>
    </personinfo>
    <personinfo id="person_NW_diag.3" depart="56.00" type="DEFAULT_PEDTYPE" speedFactor="1.06" duration="144.50" waitingTime="0.00" timeLoss="15.37" traveltime="144.50">
        <walk depart="56.00" departPos="100.00" arrival="200.50" arrivalPos="93.20" duration="144.50" routeLength="190.90" timeLoss="15.37" maxSpeed="1.48"/>
    </personinfo>
    <personinfo id="person_NS_e.2" depart="45.50" type="DEFAULT_PEDTYPE" speedFactor="1.13" duration="156.50" waitingTime="0.00" timeLoss="16.31" traveltime="156.50">
        <walk depart="45.50" departPos="100.00" arrival="202.00" arrivalPos="94.80" duration="156.50" routeLength="219.53" timeLoss="16.31" maxSpeed="1.57"/>
    </personinfo>
    <personinfo id="person_SN_e.0" depart="43.00" type="DEFAULT_PEDTYPE" speedFactor="1.03" duration="161.00" waitingTime="0.00" timeLoss="14.81" traveltime="161.00">
        <walk depart="43.00" departPos="100.00" arrival="204.00" arrivalPos="94.80" duration="161.00" routeLength="209.13" timeLoss="14.81" maxSpeed="1.43"/>
    </personinfo>
    <personinfo id="person_NW_diag.4" depart="67.00" type="DEFAULT_PEDTYPE" speedFactor="1.09" duration="139.50" waitingTime="0.00" timeLoss="13.63" traveltime="139.50">
        <walk depart="67.00" departPos="100.00" arrival="206.50" arrivalPos="93.20" duration="139.50" routeLength="190.90" timeLoss="13.63" maxSpeed="1.52"/>
    </personinfo>
    <tripinfo id="NS.8" depart="150.00" departLane="5_1_2" departPos="5.10" departSpeed="0.00" departDelay="0.00" arrival="213.00" arrivalLane="1_3_2" arrivalPos="189.60" arrivalSpeed="11.45" duration="63.00" routeLength="395.22" waitingTime="20.00" waitingCount="1" stopTime="0.00" timeLoss="28.43" rerouteNo="0" devices="tripinfo_NS.8 routing_NS.8" vType="DEFAULT_VEHTYPE" speedFactor="1.02" vaporized=""/>
    <tripinfo id="NS.7" depart="131.50" departLane="5_1_2" departPos="5.10" departSpeed="0.00" departDelay="0.25" arrival="214.00" arrivalLane="1_3_1" arrivalPos="189.60" arrivalSpeed="10.83" duration="82.50" routeLength="395.22" waitingTime="41.00" waitingCount="1" stopTime="0.00" timeLoss="47.98" rerouteNo="0" devices="tripinfo_NS.7 routing_NS.7" vType="DEFAULT_VEHTYPE" speedFactor="1.02" vaporized=""/>
    <tripinfo id="SN.5" depart="136.50" departLane="3_1_1" departPos="5.10" departSpeed="0.00" departDelay="0.14" arrival="214.50" arrivalLane="1_5_1" arrivalPos="189.60" arrivalSpeed="10.47" duration="78.00" routeLength="395.22" waitingTime="34.00" waitingCount="1" stopTime="0.00" timeLoss="40.24" rerouteNo="0" devices="tripinfo_SN.5 routing_SN.5" vType="DEFAULT_VEHTYPE" speedFactor="0.93" vaporized=""/>
    <tripinfo id="SN.6" depart="164.00" departLane="3_1_2" departPos="5.10" departSpeed="0.00" departDelay="0.36" arrival="216.00" arrivalLane="1_5_1" arrivalPos="189.60" arrivalSpeed="9.67" duration="52.00" routeLength="395.22" waitingTime="6.00" waitingCount="1" stopTime="0.00" timeLoss="11.15" rerouteNo="0" devices="tripinfo_SN.6 routing_SN.6" vType="DEFAULT_VEHTYPE" speedFactor="0.86" vaporized=""/>
    <tripinfo id="NS.9" depart="169.00" departLane="5_1_2" departPos="5.10" departSpeed="0.00" departDelay="0.25" arrival="216.00" arrivalLane="1_3_1" arrivalPos="189.60" arrivalSpeed="10.89" duration="47.00" routeLength="395.22" waitingTime="2.00" waitingCount="1" stopTime="0.00" timeLoss="11.62" rerouteNo="0" devices="tripinfo_NS.9 routing_NS.9" vType="DEFAULT_VEHTYPE" speedFactor="1.00" vaporized=""/>
    <tripinfo id="NE.1" depart="150.00" departLane="5_1_3" departPos="5.10" departSpeed="0.00" departDelay="0.00" arrival="218.50" arrivalLane="1_4_2" arrivalPos="186.40" arrivalSpeed="12.43" duration="68.50" routeLength="392.89" waitingTime="24.50" waitingCount="3" stopTime="0.00" timeLoss="38.01" rerouteNo="0" devices="tripinfo_NE.1 routing_NE.1" vType="DEFAULT_VEHTYPE" speedFactor="1.16" vaporized=""/>
    <tripinfo id="NW.3" depart="150.00" departLane="5_1_1" departPos="5.10" departSpeed="0.00" departDelay="0.00" arrival="220.00" arrivalLane="1_2_1" arrivalPos="186.40" arrivalSpeed="10.80" duration="70.00" routeLength="382.62" waitingTime="21.00" waitingCount="2" stopTime="0.00" timeLoss="33.48" rerouteNo="0" devices="tripinfo_NW.3 routing_NW.3" vType="DEFAULT_VEHTYPE" speedFactor="0.96" vaporized=""/>
    <personinfo id="person_NS_e.1" depart="28.50" type="DEFAULT_PEDTYPE" speedFactor="0.91" duration="192.00" waitingTime="0.00" timeLoss="19.14" traveltime="192.00">
        <walk depart="28.50" departPos="100.00" arrival="220.50" arrivalPos="94.80" duration="192.00" routeLength="219.53" timeLoss="19.14" maxSpeed="1.27"/>
    </personinfo>
    <tripinfo id="WS.2" depart="133.50" departLane="2_1_1" departPos="5.10" departSpeed="0.00" departDelay="0.17" arrival="223.00" arrivalLane="1_3_1" arrivalPos="189.60" arrivalSpeed="11.31" duration="89.50" routeLength="385.10" waitingTime="42.50" waitingCount="1" stopTime="0.00" timeLoss="54.84" rerouteNo="0" devices="tripinfo_WS.2 routing_WS.2" vType="DEFAULT_VEHTYPE" speedFactor="1.01" vaporized=""/>
    <tripinfo id="WE.2" depart="100.00" departLane="2_1_1" departPos="5.10" departSpeed="0.00" departDelay="0.00" arrival="223.50" arrivalLane="1_4_1" arrivalPos="186.40" arrivalSpeed="10.50" duration="123.50" routeLength="395.13" waitingTime="79.50" waitingCount="1" stopTime="0.00" timeLoss="86.44" rerouteNo="0" devices="tripinfo_WE.2 routing_WE.2" vType="DEFAULT_VEHTYPE" speedFactor="0.95" vaporized=""/>
    <tripinfo id="WE.3" depart="150.00" departLane="2_1_1" departPos="5.10" departSpeed="0.00" departDelay="0.00" arrival="225.00" arrivalLane="1_4_1" arrivalPos="186.40" arrivalSpeed="13.00" duration="75.00" routeLength="395.13" waitingTime="28.00" waitingCount="1" stopTime="0.00" timeLoss="44.73" rerouteNo="0" devices="tripinfo_WE.3 routing_WE.3" vType="DEFAULT_VEHTYPE" speedFactor="1.17" vaporized=""/>
    <personinfo id="person_NW_diag.5" depart="88.00" type="DEFAULT_PEDTYPE" speedFactor="1.11" duration="138.50" waitingTime="0.00" timeLoss="14.64" traveltime="138.50">
        <walk depart="88.00" departPos="100.00" arrival="226.50" arrivalPos="93.20" duration="138.50" routeLength="190.90" timeLoss="14.64" maxSpeed="1.54"/>
    </personinfo>
    <tripinfo id="EW.1" depart="150.00" departLane="4_1_2" departPos="5.10" departSpeed="0.00" departDelay="0.00" arrival="226.50" arrivalLane="1_2_1" arrivalPos="186.40" arrivalSpeed="9.66" duration="76.50" routeLength="394.90" waitingTime="29.00" waitingCount="1" stopTime="0.00" timeLoss="36.64" rerouteNo="0" devices="tripinfo_EW.1 routing_EW.1" vType="DEFAULT_VEHTYPE" speedFactor="0.89" vaporized=""/>
    <personinfo id="person_WE_s.2" depart="51.50" type="DEFAULT_PEDTYPE" speedFactor="1.20" duration="175.50" waitingTime="0.00" timeLoss="49.99" traveltime="175.50">
        <walk depart="51.50" departPos="100.00" arrival="227.00" arrivalPos="93.20" duration="175.50" routeLength="209.26" timeLoss="49.99" maxSpeed="1.67"/>
    </personinfo>
    <personinfo id="person_SN_w.1" depart="52.50" type="DEFAULT_PEDTYPE" speedFactor="1.00" duration="176.50" waitingTime="0.00" timeLoss="20.06" traveltime="176.50">
        <walk depart="52.50" departPos="100.00" arrival="229.00" arrivalPos="94.80" duration="176.50" routeLength="217.89" timeLoss="20.06" maxSpeed="1.39"/>
    </personinfo>
    <personinfo id="person_WE_n.1" depart="31.50" type="DEFAULT_PEDTYPE" speedFactor="1.12" duration="199.50" waitingTime="0.00" timeLoss="55.31" traveltime="199.50">
        <walk depart="31.50" departPos="100.00" arrival="231.00" arrivalPos="93.20" duration="199.50" routeLength="224.16" timeLoss="55.31" maxSpeed="1.55"/>
    </personinfo>
    <personinfo id="person_WE_s.1" depart="43.50" type="DEFAULT_PEDTYPE" speedFactor="1.08" duration="188.00" waitingTime="0.00" timeLoss="48.84" traveltime="188.00">
        <walk depart="43.50" departPos="100.00" arrival="231.50" arrivalPos="93.20" duration="188.00" routeLength="209.26" timeLoss="48.84" maxSpeed="1.50"/>
    </personinfo>
    <tripinfo id="EN.1" depart="150.00" departLane="4_1_1" departPos="5.10" departSpeed="0.00" departDelay="0.00" arrival="233.00" arrivalLane="1_5_1" arrivalPos="189.60" arrivalSpeed="13.00" duration="83.00" routeLength="382.62" waitingTime="42.00" waitingCount="2" stopTime="0.00" timeLoss="53.40" rerouteNo="0" devices="tripinfo_EN.1 routing_EN.1" vType="DEFAULT_VEHTYPE" speedFactor="1.18" vaporized=""/>
    <personinfo id="person_EW_n.1" depart="17.50" type="DEFAULT_PEDTYPE" speedFactor="1.09" duration="216.00" waitingTime="0.00" timeLoss="77.04" traveltime="216.00">
        <walk depart="17.50" departPos="100.00" arrival="233.50" arrivalPos="93.20" duration="216.00" routeLength="210.56" timeLoss="77.04" maxSpeed="1.52"/>
    </personinfo>
    <personinfo id="person_EW_n.4" depart="85.50" type="DEFAULT_PEDTYPE" speedFactor="1.14" duration="148.50" waitingTime="0.00" timeLoss="15.76" traveltime="148.50">
        <walk depart="85.50" departPos="100.00" arrival="234.00" arrivalPos="93.20" duration="148.50" routeLength="210.56" timeLoss="15.76" maxSpeed="1.59"/>
    </personinfo>
    <personinfo id="person_WE_s.3" depart="62.00" type="DEFAULT_PEDTYPE" speedFactor="1.05" duration="172.50" waitingTime="0.00" timeLoss="28.43" traveltime="172.50">
        <walk depart="62.00" departPos="100.00" arrival="234.50" arrivalPos="93.20" duration="172.50" routeLength="209.26" timeLoss="28.43" maxSpeed="1.45"/>
    </personinfo>
    <tripinfo id="SN.7" depart="191.00" departLane="3_1_2" departPos="5.10" departSpeed="0.00" departDelay="0.09" arrival="234.50" arrivalLane="1_5_1" arrivalPos="189.60" arrivalSpeed="10.98" duration="43.50" routeLength="395.22" waitingTime="0.50" waitingCount="1" stopTime="0.00" timeLoss="7.24" rerouteNo="0" devices="tripinfo_SN.7 routing_SN.7" vType="DEFAULT_VEHTYPE" speedFactor="0.98" vaporized=""/>
    <personinfo id="person_NE_diag.1" depart="28.50" type="DEFAULT_PEDTYPE" speedFactor="1.02" duration="208.50" waitingTime="0.00" timeLoss="49.56" traveltime="208.50">
        <walk depart="28.50" departPos="100.00" arrival="237.00" arrivalPos="93.20" duration="208.50" routeLength="225.71" timeLoss="49.56" maxSpeed="1.42"/>
    </personinfo>
    <tripinfo id="NS.10" depart="187.50" departLane="5_1_1" departPos="5.10" departSpeed="0.00" departDelay="0.00" arrival="237.00" arrivalLane="1_3_1" arrivalPos="189.60" arrivalSpeed="10.64" duration="49.50" routeLength="395.22" waitingTime="3.50" waitingCount="1" stopTime="0.00" timeLoss="12.05" rerouteNo="0" devices="tripinfo_NS.10 routing_NS.10" vType="DEFAULT_VEHTYPE" speedFactor="0.95" vaporized=""/>
    <personinfo id="person_NS_e.3" depart="58.50" type="DEFAULT_PEDTYPE" speedFactor="0.98" duration="180.00" waitingTime="0.00" timeLoss="19.34" traveltime="180.00">
        <walk depart="58.50" departPos="100.00" arrival="238.50" arrivalPos="94.80" duration="180.00" routeLength="219.53" timeLoss="19.34" maxSpeed="1.37"/>
    </personinfo>
    <personinfo id="person_WE_n.3" depart="37.00" type="DEFAULT_PEDTYPE" speedFactor="0.99" duration="204.50" waitingTime="0.00" timeLoss="40.98" traveltime="204.50">
        <walk depart="37.00" departPos="100.00" arrival="241.50" arrivalPos="93.20" duration="204.50" routeLength="224.16" timeLoss="40.98" maxSpeed="1.37"/>
    </personinfo>
    <tripinfo id="NS.11" depart="206.50" departLane="5_1_2" departPos="5.10" departSpeed="0.00" departDelay="0.25" arrival="241.50" arrivalLane="1_3_1" arrivalPos="189.60" arrivalSpeed="12.50" duration="35.00" routeLength="395.22" waitingTime="0.00" waitingCount="0" stopTime="0.00" timeLoss="3.79" rerouteNo="0" devices="tripinfo_NS.11 routing_NS.11" vType="DEFAULT_VEHTYPE" speedFactor="1.13" vaporized=""/>
    <personinfo id="person_WE_n.0" depart="10.00" type="DEFAULT_PEDTYPE" speedFactor="1.00" duration="232.50" waitingTime="0.00" timeLoss="70.62" traveltime="232.50">
        <walk depart="10.00" departPos="100.00" arrival="242.50" arrivalPos="93.20" duration="232.50" routeLength="224.16" timeLoss="70.62" maxSpeed="1.38"/>
    </personinfo>
    <personinfo id="person_WE_n.2" depart="31.50" type="DEFAULT_PEDTYPE" speedFactor="1.00" duration="211.50" waitingTime="0.00" timeLoss="49.77" traveltime="211.50">
        <walk depart="31.50" departPos="100.00" arrival="243.00" arrivalPos="93.20" duration="211.50" routeLength="224.16" timeLoss="49.77" maxSpeed="1.39"/>
    </personinfo>
    <tripinfo id="SE.3" depart="164.00" departLane="3_1_1" departPos="5.10" departSpeed="0.00" departDelay="0.37" arrival="244.50" arrivalLane="1_4_1" arrivalPos="186.40" arrivalSpeed="12.39" duration="80.50" routeLength="379.93" waitingTime="33.00" waitingCount="3" stopTime="0.00" timeLoss="48.82" rerouteNo="0" devices="tripinfo_SE.3 routing_SE.3" vType="DEFAULT_VEHTYPE" speedFactor="1.11" vaporized=""/>
    <personinfo id="person_EW_n.0" depart="14.50" type="DEFAULT_PEDTYPE" speedFactor="0.95" duration="231.50" waitingTime="0.00" timeLoss="72.09" traveltime="231.50">
        <walk depart="14.50" departPos="100.00" arrival="246.00" arrivalPos="93.20" duration="231.50" routeLength="210.56" timeLoss="72.09" maxSpeed="1.32"/>
    </personinfo>
    <personinfo id="person_EW_n.6" depart="95.00" type="DEFAULT_PEDTYPE" speedFactor="1.14" duration="151.00" waitingTime="0.00" timeLoss="18.47" traveltime="151.00">
        <walk depart="95.00" departPos="100.00" arrival="246.00" arrivalPos="93.20" duration="151.00" routeLength="210.56" timeLoss="18.47" maxSpeed="1.59"/>
    </personinfo>
    <personinfo id="person_NW_diag.7" depart="94.00" type="DEFAULT_PEDTYPE" speedFactor="1.04" duration="152.50" waitingTime="0.00" timeLoss="20.41" traveltime="152.50">
        <walk depart="94.00" departPos="100.00" arrival="246.50" arrivalPos="93.20" duration="152.50" routeLength="190.90" timeLoss="20.41" maxSpeed="1.45"/>
    </personinfo>