<?xml version="1.0" encoding="UTF-8"?>

<!-- generated on 2025-03-12 17:53:55 by Eclipse SUMO GUI Version 1.22.0
<sumoConfiguration xmlns:xsi="http://www.w3.org/2001/XMLSchema-instance" xsi:noNamespaceSchemaLocation="http://sumo.dlr.de/xsd/sumoConfiguration.xsd">

    <input>
        <net-file value="C:\Users\chris\PycharmProjects\UW_CET593_project2\environment/network_model/single_intersection_pedestrian_X.net.xml"/>
        <route-files value="C:\Users\chris\PycharmProjects\UW_CET593_project2\environment/network_model/single_intersection.rou.xml"/>
        <additional-files value="C:\Users\chris\PycharmProjects\UW_CET593_project2\environment/network_model/single_intersection.add_actuated.xml"/>
    </input>

    <output>
        <queue-output value="C:\Users\chris\PycharmProjects\UW_CET593_project2\environment/simulation_data/single_intersection/queues_actuated_symmetric_pene_100.xml"/>
        <tripinfo-output value="C:\Users\chris\PycharmProjects\UW_CET593_project2\environment/simulation_data/single_intersection/tripinfo_actuated_symmetric_pene_100.xml"/>
    </output>

    <time>
        <begin value="0"/>
        <step-length value="0.5"/>
    </time>

    <processing>
        <waiting-time-memory value="1000"/>
    </processing>

    <report>
        <verbose value="true"/>
        <no-step-log value="true"/>
    </report>

    <traci_server>
        <remote-port value="63310"/>
    </traci_server>

    <gui_only>
        <start value="true"/>
    </gui_only>

</sumoConfiguration>
-->

<detector xmlns:xsi="http://www.w3.org/2001/XMLSchema-instance" xsi:noNamespaceSchemaLocation="http://sumo.dlr.de/xsd/det_e1_file.xsd">
    <interval begin="0.00" end="300.00" id="1_actuated_program_D0.0" nVehContrib="18" flow="216.00" occupancy="2.63" speed="11.65" harmonicMeanSpeed="11.40" length="5.00" nVehEntered="18"/>
    <interval begin="0.00" end="300.00" id="1_actuated_program_D0.1" nVehContrib="9" flow="108.00" occupancy="1.33" speed="11.48" harmonicMeanSpeed="11.27" length="5.00" nVehEntered="9"/>
    <interval begin="0.00" end="300.00" id="1_actuated_program_D0.2" nVehContrib="3" flow="36.00" occupancy="0.41" speed="12.24" harmonicMeanSpeed="12.24" length="5.00" nVehEntered="3"/>
    <interval begin="0.00" end="300.00" id="1_actuated_program_D1.0" nVehContrib="14" flow="168.00" occupancy="1.94" speed="12.04" harmonicMeanSpeed="12.03" length="5.00" nVehEntered="14"/>
    <interval begin="0.00" end="300.00" id="1_actuated_program_D1.1" nVehContrib="7" flow="84.00" occupancy="1.14" speed="10.78" harmonicMeanSpeed="10.23" length="5.00" nVehEntered="7"/>
    <interval begin="0.00" end="300.00" id="1_actuated_program_D1.2" nVehContrib="6" flow="72.00" occupancy="0.83" speed="12.07" harmonicMeanSpeed="12.06" length="5.00" nVehEntered="6"/>
    <interval begin="0.00" end="300.00" id="1_actuated_program_D2.0" nVehContrib="13" flow="156.00" occupancy="1.79" speed="12.14" harmonicMeanSpeed="12.13" length="5.00" nVehEntered="13"/>
    <interval begin="0.00" end="300.00" id="1_actuated_program_D2.1" nVehContrib="10" flow="120.00" occupancy="1.77" speed="10.24" harmonicMeanSpeed="9.44" length="5.00" nVehEntered="10"/>
    <interval begin="0.00" end="300.00" id="1_actuated_program_D2.2" nVehContrib="4" flow="48.00" occupancy="0.54" speed="12.44" harmonicMeanSpeed="12.43" length="5.00" nVehEntered="4"/>
    <interval begin="0.00" end="300.00" id="1_actuated_program_D3.0" nVehContrib="11" flow="132.00" occupancy="1.51" speed="12.17" harmonicMeanSpeed="12.15" length="5.00" nVehEntered="11"/>
    <interval begin="0.00" end="300.00" id="1_actuated_program_D3.1" nVehContrib="11" flow="132.00" occupancy="1.79" speed="10.91" harmonicMeanSpeed="10.23" length="5.00" nVehEntered="11"/>
    <interval begin="0.00" end="300.00" id="1_actuated_program_D3.2" nVehContrib="2" flow="24.00" occupancy="0.28" speed="12.10" harmonicMeanSpeed="12.07" length="5.00" nVehEntered="2"/>
    <interval begin="300.00" end="600.00" id="1_actuated_program_D0.0" nVehContrib="18" flow="216.00" occupancy="7.12" speed="10.22" harmonicMeanSpeed="4.28" length="5.00" nVehEntered="19"/>
    <interval begin="300.00" end="600.00" id="1_actuated_program_D0.1" nVehContrib="16" flow="192.00" occupancy="3.00" speed="10.19" harmonicMeanSpeed="8.87" length="5.00" nVehEntered="16"/>
    <interval begin="300.00" end="600.00" id="1_actuated_program_D0.2" nVehContrib="7" flow="84.00" occupancy="0.94" speed="12.41" harmonicMeanSpeed="12.41" length="5.00" nVehEntered="7"/>
    <interval begin="300.00" end="600.00" id="1_actuated_program_D1.0" nVehContrib="10" flow="120.00" occupancy="1.36" speed="12.28" harmonicMeanSpeed="12.26" length="5.00" nVehEntered="10"/>
    <interval begin="300.00" end="600.00" id="1_actuated_program_D1.1" nVehContrib="16" flow="192.00" occupancy="2.97" speed="9.78" harmonicMeanSpeed="8.99" length="5.00" nVehEntered="16"/>
    <interval begin="300.00" end="600.00" id="1_actuated_program_D1.2" nVehContrib="4" flow="48.00" occupancy="0.60" speed="11.41" harmonicMeanSpeed="11.17" length="5.00" nVehEntered="4"/>
    <interval begin="300.00" end="600.00" id="1_actuated_program_D2.0" nVehContrib="17" flow="204.00" occupancy="2.58" speed="11.69" harmonicMeanSpeed="11.55" length="5.00" nVehEntered="18"/>
    <interval begin="300.00" end="600.00" id="1_actuated_program_D2.1" nVehContrib="15" flow="180.00" occupancy="2.70" speed="10.46" harmonicMeanSpeed="9.70" length="5.00" nVehEntered="16"/>
    <interval begin="300.00" end="600.00" id="1_actuated_program_D2.2" nVehContrib="10" flow="120.00" occupancy="5.93" speed="9.32" harmonicMeanSpeed="2.81" length="5.00" nVehEntered="10"/>
    <interval begin="300.00" end="600.00" id="1_actuated_program_D3.0" nVehContrib="22" flow="264.00" occupancy="3.97" speed="10.72" harmonicMeanSpeed="9.65" length="5.00" nVehEntered="23"/>
    <interval begin="300.00" end="600.00" id="1_actuated_program_D3.1" nVehContrib="13" flow="156.00" occupancy="4.41" speed="9.27" harmonicMeanSpeed="6.28" length="5.00" nVehEntered="14"/>
    <interval begin="300.00" end="600.00" id="1_actuated_program_D3.2" nVehContrib="8" flow="96.00" occupancy="1.08" speed="12.31" harmonicMeanSpeed="12.29" length="5.00" nVehEntered="8"/>
    <interval begin="600.00" end="821.50" id="1_actuated_program_D0.0" nVehContrib="0" flow="0.00" occupancy="0.00" speed="-1.00" harmonicMeanSpeed="-1.00" length="-1.00" nVehEntered="0"/>
    <interval begin="600.00" end="821.50" id="1_actuated_program_D0.1" nVehContrib="0" flow="0.00" occupancy="0.00" speed="-1.00" harmonicMeanSpeed="-1.00" length="-1.00" nVehEntered="0"/>
    <interval begin="600.00" end="821.50" id="1_actuated_program_D0.2" nVehContrib="2" flow="32.51" occupancy="0.42" speed="11.02" harmonicMeanSpeed="10.77" length="5.00" nVehEntered="2"/>
    <interval begin="600.00" end="821.50" id="1_actuated_program_D1.0" nVehContrib="1" flow="16.25" occupancy="0.19" speed="11.66" harmonicMeanSpeed="11.66" length="5.00" nVehEntered="1"/>
    <interval begin="600.00" end="821.50" id="1_actuated_program_D1.1" nVehContrib="0" flow="0.00" occupancy="0.00" speed="-1.00" harmonicMeanSpeed="-1.00" length="-1.00" nVehEntered="0"/>
    <interval begin="600.00" end="821.50" id="1_actuated_program_D1.2" nVehContrib="2" flow="32.51" occupancy="0.36" speed="12.50" harmonicMeanSpeed="12.49" length="5.00" nVehEntered="2"/>
    <interval begin="600.00" end="821.50" id="1_actuated_program_D2.0" nVehContrib="2" flow="32.51" occupancy="0.36" speed="12.59" harmonicMeanSpeed="12.58" length="5.00" nVehEntered="2"/>
    <interval begin="600.00" end="821.50" id="1_actuated_program_D2.1" nVehContrib="0" flow="0.00" occupancy="0.00" speed="-1.00" harmonicMeanSpeed="-1.00" length="-1.00" nVehEntered="0"/>
    <interval begin="600.00" end="821.50" id="1_actuated_program_D2.2" nVehContrib="0" flow="0.00" occupancy="0.00" speed="-1.00" harmonicMeanSpeed="-1.00" length="-1.00" nVehEntered="0"/>
    <interval begin="600.00" end="821.50" id="1_actuated_program_D3.0" nVehContrib="1" flow="16.25" occupancy="6.67" speed="0.34" harmonicMeanSpeed="0.34" length="5.00" nVehEntered="1"/>
    <interval begin="600.00" end="821.50" id="1_actuated_program_D3.1" nVehContrib="2" flow="32.51" occupancy="5.92" speed="2.89" harmonicMeanSpeed="0.76" length="5.00" nVehEntered="2"/>
    <interval begin="600.00" end="821.50" id="1_actuated_program_D3.2" nVehContrib="0" flow="0.00" occupancy="0.00" speed="-1.00" harmonicMeanSpeed="-1.00" length="-1.00" nVehEntered="0"/>
</detector>
