<?xml version="1.0" encoding="UTF-8"?>

<!-- generated on 2025-03-12 16:40:07 by Eclipse SUMO GUI Version 1.22.0
<sumoConfiguration xmlns:xsi="http://www.w3.org/2001/XMLSchema-instance" xsi:noNamespaceSchemaLocation="http://sumo.dlr.de/xsd/sumoConfiguration.xsd">

    <input>
        <net-file value="C:\Users\chris\PycharmProjects\UW_CET593_project2\environment/network_model/single_intersection_pedestrian_X.net.xml"/>
        <route-files value="C:\Users\chris\PycharmProjects\UW_CET593_project2\environment/network_model/single_intersection.rou.xml"/>
        <additional-files value="C:\Users\chris\PycharmProjects\UW_CET593_project2\environment/network_model/single_intersection.add.xml"/>
    </input>

    <output>
        <queue-output value="C:\Users\chris\PycharmProjects\UW_CET593_project2\environment/simulation_data/single_intersection/queues_multi_scale_symmetric_pene_80.xml"/>
        <tripinfo-output value="C:\Users\chris\PycharmProjects\UW_CET593_project2\environment/simulation_data/single_intersection/tripinfo_multi_scale_symmetric_pene_80.xml"/>
    </output>

    <time>
        <begin value="0"/>
        <step-length value="0.5"/>
    </time>

    <processing>
        <waiting-time-memory value="1000"/>
    </processing>

    <report>
        <verbose value="true"/>
        <no-step-log value="true"/>
    </report>

    <traci_server>
        <remote-port value="65038"/>
    </traci_server>

    <gui_only>
        <start value="true"/>
    </gui_only>

</sumoConfiguration>
-->

<tripinfos xmlns:xsi="http://www.w3.org/2001/XMLSchema-instance" xsi:noNamespaceSchemaLocation="http://sumo.dlr.de/xsd/tripinfo_file.xsd">
    <tripinfo id="SN_0" depart="0.00" departLane="3_1_2" departPos="5.10" departSpeed="0.00" departDelay="0.00" arrival="35.50" arrivalLane="1_5_1" arrivalPos="186.40" arrivalSpeed="12.66" duration="35.50" routeLength="395.15" waitingTime="0.00" waitingCount="0" stopTime="0.00" timeLoss="4.91" rerouteNo="0" devices="tripinfo_SN_0" vType="cars" speedFactor="0.97" vaporized=""/>
    <tripinfo id="NS_1" depart="1.00" departLane="5_1_2" departPos="5.10" departSpeed="0.00" departDelay="0.00" arrival="37.00" arrivalLane="1_3_1" arrivalPos="186.40" arrivalSpeed="13.00" duration="36.00" routeLength="395.15" waitingTime="0.00" waitingCount="0" stopTime="0.00" timeLoss="5.41" rerouteNo="0" devices="tripinfo_NS_1" vType="cars" speedFactor="1.11" vaporized=""/>
    <tripinfo id="SN_2" depart="5.00" departLane="3_1_2" departPos="5.10" departSpeed="0.00" departDelay="0.00" arrival="40.50" arrivalLane="1_5_1" arrivalPos="186.40" arrivalSpeed="13.00" duration="35.50" routeLength="395.15" waitingTime="0.00" waitingCount="0" stopTime="0.00" timeLoss="4.95" rerouteNo="0" devices="tripinfo_SN_2" vType="cars" speedFactor="0.86" vaporized=""/>
    <tripinfo id="WE_0" depart="1.00" departLane="2_1_2" departPos="5.10" departSpeed="0.00" departDelay="0.00" arrival="50.00" arrivalLane="1_4_1" arrivalPos="186.40" arrivalSpeed="13.00" duration="49.00" routeLength="395.15" waitingTime="10.50" waitingCount="1" stopTime="0.00" timeLoss="18.55" rerouteNo="0" devices="tripinfo_WE_0" vType="cars" speedFactor="0.91" vaporized=""/>
    <tripinfo id="WE_1" depart="10.00" departLane="2_1_2" departPos="5.10" departSpeed="0.00" departDelay="0.00" arrival="50.00" arrivalLane="1_4_2" arrivalPos="186.40" arrivalSpeed="13.00" duration="40.00" routeLength="395.15" waitingTime="1.00" waitingCount="1" stopTime="0.00" timeLoss="9.55" rerouteNo="0" devices="tripinfo_WE_1" vType="cars" speedFactor="1.06" vaporized=""/>
    <tripinfo id="WS_3" depart="7.00" departLane="2_1_1" departPos="5.10" departSpeed="0.00" departDelay="0.00" arrival="51.00" arrivalLane="1_3_1" arrivalPos="186.40" arrivalSpeed="13.00" duration="44.00" routeLength="379.43" waitingTime="0.00" waitingCount="0" stopTime="0.00" timeLoss="13.88" rerouteNo="0" devices="tripinfo_WS_3" vType="cars" speedFactor="0.95" vaporized=""/>
    <tripinfo id="WE_2" depart="12.50" departLane="2_1_2" departPos="5.10" departSpeed="0.00" departDelay="0.50" arrival="51.50" arrivalLane="1_4_1" arrivalPos="186.40" arrivalSpeed="13.00" duration="39.00" routeLength="395.15" waitingTime="0.00" waitingCount="0" stopTime="0.00" timeLoss="8.59" rerouteNo="0" devices="tripinfo_WE_2" vType="cars" speedFactor="0.94" vaporized=""/>
    <tripinfo id="EW_0" depart="19.00" departLane="4_1_2" departPos="5.10" departSpeed="0.00" departDelay="0.00" arrival="54.50" arrivalLane="1_2_1" arrivalPos="186.40" arrivalSpeed="13.00" duration="35.50" routeLength="395.15" waitingTime="0.00" waitingCount="0" stopTime="0.00" timeLoss="4.92" rerouteNo="0" devices="tripinfo_EW_0" vType="cars" speedFactor="1.05" vaporized=""/>
    <tripinfo id="EW_1" depart="21.50" departLane="4_1_2" departPos="5.10" departSpeed="0.00" departDelay="0.50" arrival="57.50" arrivalLane="1_2_1" arrivalPos="186.40" arrivalSpeed="13.00" duration="36.00" routeLength="395.15" waitingTime="0.00" waitingCount="0" stopTime="0.00" timeLoss="5.24" rerouteNo="0" devices="tripinfo_EW_1" vType="cars" speedFactor="1.01" vaporized=""/>
    <tripinfo id="NS_5" depart="22.00" departLane="5_1_2" departPos="5.10" departSpeed="0.00" departDelay="0.00" arrival="67.00" arrivalLane="1_3_1" arrivalPos="186.40" arrivalSpeed="13.00" duration="45.00" routeLength="395.15" waitingTime="6.00" waitingCount="1" stopTime="0.00" timeLoss="14.55" rerouteNo="0" devices="tripinfo_NS_5" vType="cars" speedFactor="1.01" vaporized=""/>
    <tripinfo id="NW_7" depart="37.00" departLane="5_1_1" departPos="5.10" departSpeed="0.00" departDelay="0.00" arrival="73.50" arrivalLane="1_2_1" arrivalPos="186.40" arrivalSpeed="13.00" duration="36.50" routeLength="379.43" waitingTime="0.00" waitingCount="0" stopTime="0.00" timeLoss="6.33" rerouteNo="0" devices="tripinfo_NW_7" vType="cars" speedFactor="1.13" vaporized=""/>
    <tripinfo id="NW_9" depart="41.00" departLane="5_1_1" departPos="5.10" departSpeed="0.00" departDelay="0.00" arrival="77.00" arrivalLane="1_2_1" arrivalPos="186.40" arrivalSpeed="13.00" duration="36.00" routeLength="379.43" waitingTime="0.00" waitingCount="0" stopTime="0.00" timeLoss="5.41" rerouteNo="0" devices="tripinfo_NW_9" vType="cars" speedFactor="0.91" vaporized=""/>
    <tripinfo id="EW_2" depart="46.00" departLane="4_1_2" departPos="5.10" departSpeed="0.00" departDelay="0.00" arrival="89.00" arrivalLane="1_2_1" arrivalPos="186.40" arrivalSpeed="13.00" duration="43.00" routeLength="395.15" waitingTime="2.50" waitingCount="1" stopTime="0.00" timeLoss="12.55" rerouteNo="0" devices="tripinfo_EW_2" vType="cars" speedFactor="1.05" vaporized=""/>
    <tripinfo id="ES_4" depart="14.00" departLane="4_1_3" departPos="5.10" departSpeed="0.00" departDelay="0.00" arrival="92.00" arrivalLane="1_3_2" arrivalPos="186.40" arrivalSpeed="12.63" duration="78.00" routeLength="392.22" waitingTime="36.50" waitingCount="1" stopTime="0.00" timeLoss="47.19" rerouteNo="0" devices="tripinfo_ES_4" vType="cars" speedFactor="0.97" vaporized=""/>
    <tripinfo id="ES_6" depart="31.00" departLane="4_1_3" departPos="5.10" departSpeed="0.00" departDelay="0.00" arrival="93.50" arrivalLane="1_3_2" arrivalPos="186.40" arrivalSpeed="13.00" duration="62.50" routeLength="392.22" waitingTime="13.50" waitingCount="1" stopTime="0.00" timeLoss="31.95" rerouteNo="0" devices="tripinfo_ES_6" vType="cars" speedFactor="1.07" vaporized=""/>
    <tripinfo id="WE_3" depart="43.00" departLane="2_1_2" departPos="5.10" departSpeed="0.00" departDelay="0.00" arrival="101.00" arrivalLane="1_4_1" arrivalPos="186.40" arrivalSpeed="13.00" duration="58.00" routeLength="395.15" waitingTime="18.50" waitingCount="1" stopTime="0.00" timeLoss="27.55" rerouteNo="0" devices="tripinfo_WE_3" vType="cars" speedFactor="1.05" vaporized=""/>
    <tripinfo id="EW_3" depart="68.00" departLane="4_1_2" departPos="5.10" departSpeed="0.00" departDelay="0.00" arrival="105.00" arrivalLane="1_2_1" arrivalPos="186.40" arrivalSpeed="13.00" duration="37.00" routeLength="395.15" waitingTime="0.00" waitingCount="0" stopTime="0.00" timeLoss="6.22" rerouteNo="0" devices="tripinfo_EW_3" vType="cars" speedFactor="0.98" vaporized=""/>
    <tripinfo id="WE_4" depart="67.00" departLane="2_1_2" departPos="5.10" departSpeed="0.00" departDelay="0.00" arrival="107.00" arrivalLane="1_4_1" arrivalPos="186.40" arrivalSpeed="11.00" duration="40.00" routeLength="395.15" waitingTime="0.00" waitingCount="0" stopTime="0.00" timeLoss="9.21" rerouteNo="0" devices="tripinfo_WE_4" vType="cars" speedFactor="0.96" vaporized=""/>
    <tripinfo id="SN_11" depart="70.00" departLane="3_1_2" departPos="5.10" departSpeed="0.00" departDelay="0.00" arrival="113.00" arrivalLane="1_5_1" arrivalPos="186.40" arrivalSpeed="13.00" duration="43.00" routeLength="395.15" waitingTime="2.00" waitingCount="1" stopTime="0.00" timeLoss="12.55" rerouteNo="0" devices="tripinfo_SN_11" vType="cars" speedFactor="1.02" vaporized=""/>
    <tripinfo id="NS_12" depart="80.00" departLane="5_1_2" departPos="5.10" departSpeed="0.00" departDelay="0.00" arrival="116.00" arrivalLane="1_3_1" arrivalPos="186.40" arrivalSpeed="12.81" duration="36.00" routeLength="395.15" waitingTime="0.00" waitingCount="0" stopTime="0.00" timeLoss="5.35" rerouteNo="0" devices="tripinfo_NS_12" vType="cars" speedFactor="1.07" vaporized=""/>
    <tripinfo id="SN_10" depart="48.00" departLane="3_1_2" departPos="5.10" departSpeed="0.00" departDelay="0.00" arrival="117.00" arrivalLane="1_5_1" arrivalPos="186.40" arrivalSpeed="12.54" duration="69.00" routeLength="395.15" waitingTime="26.50" waitingCount="1" stopTime="0.00" timeLoss="38.18" rerouteNo="0" devices="tripinfo_SN_10" vType="cars" speedFactor="1.02" vaporized=""/>
    <tripinfo id="SN_14" depart="90.00" departLane="3_1_2" departPos="5.10" departSpeed="0.00" departDelay="0.00" arrival="126.50" arrivalLane="1_5_1" arrivalPos="186.40" arrivalSpeed="13.00" duration="36.50" routeLength="395.15" waitingTime="0.00" waitingCount="0" stopTime="0.00" timeLoss="5.75" rerouteNo="0" devices="tripinfo_SN_14" vType="cars" speedFactor="1.05" vaporized=""/>
    <tripinfo id="NS_15" depart="92.00" departLane="5_1_2" departPos="5.10" departSpeed="0.00" departDelay="0.00" arrival="128.50" arrivalLane="1_3_1" arrivalPos="186.40" arrivalSpeed="12.24" duration="36.50" routeLength="395.15" waitingTime="0.00" waitingCount="0" stopTime="0.00" timeLoss="5.77" rerouteNo="0" devices="tripinfo_NS_15" vType="cars" speedFactor="1.01" vaporized=""/>
    <tripinfo id="SN_16" depart="93.00" departLane="3_1_2" departPos="5.10" departSpeed="0.00" departDelay="0.00" arrival="129.00" arrivalLane="1_5_1" arrivalPos="186.40" arrivalSpeed="13.00" duration="36.00" routeLength="395.15" waitingTime="0.00" waitingCount="0" stopTime="0.00" timeLoss="5.35" rerouteNo="0" devices="tripinfo_SN_16" vType="cars" speedFactor="0.91" vaporized=""/>
    <tripinfo id="NS_18" depart="99.00" departLane="5_1_2" departPos="5.10" departSpeed="0.00" departDelay="0.00" arrival="134.00" arrivalLane="1_3_1" arrivalPos="186.40" arrivalSpeed="13.00" duration="35.00" routeLength="395.15" waitingTime="0.00" waitingCount="0" stopTime="0.00" timeLoss="4.35" rerouteNo="0" devices="tripinfo_NS_18" vType="cars" speedFactor="0.84" vaporized=""/>
    <tripinfo id="SE_19" depart="100.00" departLane="3_1_1" departPos="5.10" departSpeed="0.00" departDelay="0.00" arrival="136.50" arrivalLane="1_4_1" arrivalPos="186.40" arrivalSpeed="12.10" duration="36.50" routeLength="379.42" waitingTime="0.00" waitingCount="0" stopTime="0.00" timeLoss="6.42" rerouteNo="0" devices="tripinfo_SE_19" vType="cars" speedFactor="0.92" vaporized=""/>
    <tripinfo id="WE_5" depart="86.00" departLane="2_1_2" departPos="5.10" departSpeed="0.00" departDelay="0.00" arrival="180.00" arrivalLane="1_4_1" arrivalPos="186.40" arrivalSpeed="13.00" duration="94.00" routeLength="395.15" waitingTime="55.50" waitingCount="1" stopTime="0.00" timeLoss="63.55" rerouteNo="0" devices="tripinfo_WE_5" vType="cars" speedFactor="0.99" vaporized=""/>
    <tripinfo id="WE_6" depart="88.50" departLane="2_1_2" departPos="5.10" departSpeed="0.00" departDelay="1.50" arrival="180.00" arrivalLane="1_4_2" arrivalPos="186.40" arrivalSpeed="13.00" duration="91.50" routeLength="395.15" waitingTime="47.50" waitingCount="1" stopTime="0.00" timeLoss="61.05" rerouteNo="0" devices="tripinfo_WE_6" vType="cars" speedFactor="0.93" vaporized=""/>
    <tripinfo id="EW_5" depart="126.00" departLane="4_1_2" departPos="5.10" departSpeed="0.00" departDelay="1.00" arrival="180.00" arrivalLane="1_2_2" arrivalPos="186.40" arrivalSpeed="13.00" duration="54.00" routeLength="395.15" waitingTime="12.50" waitingCount="2" stopTime="0.00" timeLoss="23.55" rerouteNo="0" devices="tripinfo_EW_5" vType="cars" speedFactor="1.09" vaporized=""/>
    <tripinfo id="WS_23" depart="125.00" departLane="2_1_1" departPos="5.10" departSpeed="0.00" departDelay="0.00" arrival="181.00" arrivalLane="1_3_1" arrivalPos="186.40" arrivalSpeed="13.00" duration="56.00" routeLength="379.43" waitingTime="12.50" waitingCount="4" stopTime="0.00" timeLoss="25.85" rerouteNo="0" devices="tripinfo_WS_23" vType="cars" speedFactor="1.02" vaporized=""/>
    <tripinfo id="EW_6" depart="137.00" departLane="4_1_2" departPos="5.10" departSpeed="0.00" departDelay="0.00" arrival="181.50" arrivalLane="1_2_1" arrivalPos="186.40" arrivalSpeed="13.00" duration="44.50" routeLength="395.15" waitingTime="0.50" waitingCount="1" stopTime="0.00" timeLoss="13.90" rerouteNo="0" devices="tripinfo_EW_6" vType="cars" speedFactor="1.08" vaporized=""/>
    <tripinfo id="WE_7" depart="125.00" departLane="2_1_2" departPos="5.10" departSpeed="0.00" departDelay="0.00" arrival="183.50" arrivalLane="1_4_2" arrivalPos="186.40" arrivalSpeed="12.41" duration="58.50" routeLength="395.15" waitingTime="13.50" waitingCount="1" stopTime="0.00" timeLoss="27.77" rerouteNo="0" devices="tripinfo_WE_7" vType="cars" speedFactor="1.02" vaporized=""/>
    <tripinfo id="EN_21" depart="111.00" departLane="4_1_1" departPos="5.10" departSpeed="0.00" departDelay="0.00" arrival="186.50" arrivalLane="1_5_1" arrivalPos="186.40" arrivalSpeed="13.00" duration="75.50" routeLength="379.42" waitingTime="35.00" waitingCount="2" stopTime="0.00" timeLoss="45.65" rerouteNo="0" devices="tripinfo_EN_21" vType="cars" speedFactor="1.00" vaporized=""/>
    <tripinfo id="WE_8" depart="134.00" departLane="2_1_2" departPos="5.10" departSpeed="0.00" departDelay="0.00" arrival="190.50" arrivalLane="1_4_1" arrivalPos="186.40" arrivalSpeed="8.94" duration="56.50" routeLength="395.15" waitingTime="3.00" waitingCount="3" stopTime="0.00" timeLoss="25.91" rerouteNo="0" devices="tripinfo_WE_8" vType="cars" speedFactor="1.01" vaporized=""/>
    <tripinfo id="NS_24" depart="125.00" departLane="5_1_2" departPos="5.10" departSpeed="0.00" departDelay="0.00" arrival="192.00" arrivalLane="1_3_1" arrivalPos="186.40" arrivalSpeed="13.00" duration="67.00" routeLength="395.15" waitingTime="26.50" waitingCount="1" stopTime="0.00" timeLoss="36.55" rerouteNo="0" devices="tripinfo_NS_24" vType="cars" speedFactor="1.22" vaporized=""/>
    <tripinfo id="SN_25" depart="126.00" departLane="3_1_2" departPos="5.10" departSpeed="0.00" departDelay="0.00" arrival="192.00" arrivalLane="1_5_1" arrivalPos="186.40" arrivalSpeed="13.00" duration="66.00" routeLength="395.15" waitingTime="26.50" waitingCount="1" stopTime="0.00" timeLoss="35.55" rerouteNo="0" devices="tripinfo_SN_25" vType="cars" speedFactor="0.91" vaporized=""/>
    <tripinfo id="NS_26" depart="130.00" departLane="5_1_2" departPos="5.10" departSpeed="0.00" departDelay="0.00" arrival="192.00" arrivalLane="1_3_2" arrivalPos="186.40" arrivalSpeed="13.00" duration="62.00" routeLength="395.15" waitingTime="14.50" waitingCount="6" stopTime="0.00" timeLoss="31.55" rerouteNo="0" devices="tripinfo_NS_26" vType="cars" speedFactor="1.04" vaporized=""/>
    <tripinfo id="SN_27" depart="130.00" departLane="3_1_2" departPos="5.10" departSpeed="0.00" departDelay="0.00" arrival="193.50" arrivalLane="1_5_1" arrivalPos="186.40" arrivalSpeed="13.00" duration="63.50" routeLength="395.15" waitingTime="19.00" waitingCount="2" stopTime="0.00" timeLoss="32.89" rerouteNo="0" devices="tripinfo_SN_27" vType="cars" speedFactor="1.11" vaporized=""/>
    <tripinfo id="NS_30" depart="138.00" departLane="5_1_2" departPos="5.10" departSpeed="0.00" departDelay="0.00" arrival="193.50" arrivalLane="1_3_1" arrivalPos="186.40" arrivalSpeed="13.00" duration="55.50" routeLength="395.15" waitingTime="6.00" waitingCount="2" stopTime="0.00" timeLoss="25.09" rerouteNo="0" devices="tripinfo_NS_30" vType="cars" speedFactor="1.01" vaporized=""/>
    <tripinfo id="NS_31" depart="141.00" departLane="5_1_2" departPos="5.10" departSpeed="0.00" departDelay="2.00" arrival="193.50" arrivalLane="1_3_2" arrivalPos="186.40" arrivalSpeed="13.00" duration="52.50" routeLength="395.15" waitingTime="4.50" waitingCount="4" stopTime="0.00" timeLoss="22.09" rerouteNo="0" devices="tripinfo_NS_31" vType="cars" speedFactor="1.01" vaporized=""/>
    <tripinfo id="SN_20" depart="109.00" departLane="3_1_2" departPos="5.10" departSpeed="0.00" departDelay="0.00" arrival="195.50" arrivalLane="1_5_1" arrivalPos="186.40" arrivalSpeed="12.42" duration="86.50" routeLength="395.15" waitingTime="43.50" waitingCount="1" stopTime="0.00" timeLoss="56.01" rerouteNo="0" devices="tripinfo_SN_20" vType="cars" speedFactor="0.89" vaporized=""/>
    <tripinfo id="SN_35" depart="156.00" departLane="3_1_2" departPos="5.10" departSpeed="0.00" departDelay="0.00" arrival="195.50" arrivalLane="1_5_2" arrivalPos="186.40" arrivalSpeed="13.00" duration="39.50" routeLength="395.15" waitingTime="0.00" waitingCount="0" stopTime="0.00" timeLoss="8.81" rerouteNo="0" devices="tripinfo_SN_35" vType="cars" speedFactor="1.06" vaporized=""/>
    <tripinfo id="NS_34" depart="152.00" departLane="5_1_2" departPos="5.10" departSpeed="0.00" departDelay="0.00" arrival="197.50" arrivalLane="1_3_1" arrivalPos="186.40" arrivalSpeed="13.00" duration="45.50" routeLength="395.15" waitingTime="0.50" waitingCount="1" stopTime="0.00" timeLoss="14.74" rerouteNo="0" devices="tripinfo_NS_34" vType="cars" speedFactor="0.85" vaporized=""/>
    <tripinfo id="NS_32" depart="147.00" departLane="5_1_2" departPos="5.10" departSpeed="0.00" departDelay="0.00" arrival="198.00" arrivalLane="1_3_2" arrivalPos="186.40" arrivalSpeed="11.97" duration="51.00" routeLength="395.15" waitingTime="2.00" waitingCount="1" stopTime="0.00" timeLoss="20.32" rerouteNo="0" devices="tripinfo_NS_32" vType="cars" speedFactor="1.00" vaporized=""/>
    <tripinfo id="NW_33" depart="147.00" departLane="5_1_1" departPos="5.10" departSpeed="0.00" departDelay="0.00" arrival="201.00" arrivalLane="1_2_2" arrivalPos="186.40" arrivalSpeed="9.13" duration="54.00" routeLength="379.43" waitingTime="3.00" waitingCount="6" stopTime="0.00" timeLoss="23.70" rerouteNo="0" devices="tripinfo_NW_33" vType="cars" speedFactor="0.83" vaporized=""/>
    <tripinfo id="NS_38" depart="163.00" departLane="5_1_2" departPos="5.10" departSpeed="0.00" departDelay="0.00" arrival="203.00" arrivalLane="1_3_1" arrivalPos="186.40" arrivalSpeed="11.00" duration="40.00" routeLength="395.15" waitingTime="0.00" waitingCount="0" stopTime="0.00" timeLoss="9.28" rerouteNo="0" devices="tripinfo_NS_38" vType="cars" speedFactor="0.93" vaporized=""/>
    <personinfo id="person_WE_s.2" depart="64.50" type="DEFAULT_PEDTYPE" speedFactor="1.20" duration="142.00" waitingTime="0.00" timeLoss="9.35" traveltime="142.00">
        <walk depart="64.50" departPos="100.00" arrival="206.50" arrivalPos="93.20" duration="142.00" routeLength="221.17" timeLoss="9.35" maxSpeed="1.67"/>
    </personinfo>
    <tripinfo id="EW_4" depart="123.00" departLane="4_1_2" departPos="5.10" departSpeed="0.00" departDelay="0.00" arrival="209.00" arrivalLane="1_2_1" arrivalPos="186.40" arrivalSpeed="5.04" duration="86.00" routeLength="395.15" waitingTime="14.00" waitingCount="2" stopTime="0.00" timeLoss="55.53" rerouteNo="0" devices="tripinfo_EW_4" vType="cars" speedFactor="1.11" vaporized=""/>
    <tripinfo id="WN_13" depart="85.00" departLane="2_1_3" departPos="5.10" departSpeed="0.00" departDelay="0.00" arrival="210.00" arrivalLane="1_5_2" arrivalPos="186.40" arrivalSpeed="13.00" duration="125.00" routeLength="392.22" waitingTime="85.00" waitingCount="1" stopTime="0.00" timeLoss="93.89" rerouteNo="0" devices="tripinfo_WN_13" vType="cars" speedFactor="0.99" vaporized=""/>
    <tripinfo id="ES_22" depart="119.00" departLane="4_1_3" departPos="5.10" departSpeed="0.00" departDelay="0.00" arrival="210.00" arrivalLane="1_3_2" arrivalPos="186.40" arrivalSpeed="13.00" duration="91.00" routeLength="392.22" waitingTime="52.50" waitingCount="1" stopTime="0.00" timeLoss="59.84" rerouteNo="0" devices="tripinfo_ES_22" vType="cars" speedFactor="0.97" vaporized=""/>
    <personinfo id="person_NS_w.1" depart="11.00" type="DEFAULT_PEDTYPE" speedFactor="1.12" duration="200.00" waitingTime="0.00" timeLoss="57.68" traveltime="200.00">
        <walk depart="11.00" departPos="100.00" arrival="211.00" arrivalPos="93.20" duration="200.00" routeLength="221.25" timeLoss="57.68" maxSpeed="1.55"/>
    </personinfo>
    <tripinfo id="WN_36" depart="158.00" departLane="2_1_3" departPos="5.10" departSpeed="0.00" departDelay="0.00" arrival="212.00" arrivalLane="1_5_2" arrivalPos="186.40" arrivalSpeed="13.00" duration="54.00" routeLength="392.22" waitingTime="6.00" waitingCount="1" stopTime="0.00" timeLoss="22.96" rerouteNo="0" devices="tripinfo_WN_36" vType="cars" speedFactor="1.03" vaporized=""/>
    <personinfo id="person_EW_n.0" depart="21.00" type="DEFAULT_PEDTYPE" speedFactor="1.09" duration="192.00" waitingTime="0.00" timeLoss="46.06" traveltime="192.00">
        <walk depart="21.00" departPos="100.00" arrival="213.00" arrivalPos="93.20" duration="192.00" routeLength="221.32" timeLoss="46.06" maxSpeed="1.52"/>
    </personinfo>
    <personinfo id="person_WE_s.1" depart="54.50" type="DEFAULT_PEDTYPE" speedFactor="1.08" duration="158.50" waitingTime="0.00" timeLoss="11.42" traveltime="158.50">
        <walk depart="54.50" departPos="100.00" arrival="213.00" arrivalPos="93.20" duration="158.50" routeLength="221.17" timeLoss="11.42" maxSpeed="1.50"/>
    </personinfo>
    <tripinfo id="ES_37" depart="160.00" departLane="4_1_3" departPos="5.10" departSpeed="0.00" departDelay="0.00" arrival="214.00" arrivalLane="1_3_2" arrivalPos="186.40" arrivalSpeed="11.76" duration="54.00" routeLength="392.22" waitingTime="7.50" waitingCount="1" stopTime="0.00" timeLoss="23.51" rerouteNo="0" devices="tripinfo_ES_37" vType="cars" speedFactor="1.11" vaporized=""/>
    <personinfo id="person_SW_diag.1" depart="61.00" type="DEFAULT_PEDTYPE" speedFactor="1.10" duration="157.00" waitingTime="0.00" timeLoss="16.06" traveltime="157.00">
        <walk depart="61.00" departPos="100.00" arrival="218.00" arrivalPos="93.20" duration="157.00" routeLength="216.26" timeLoss="16.06" maxSpeed="1.53"/>
    </personinfo>
    <personinfo id="person_NS_w.7" depart="51.00" type="DEFAULT_PEDTYPE" speedFactor="1.02" duration="169.50" waitingTime="0.00" timeLoss="13.65" traveltime="169.50">
        <walk depart="51.00" departPos="100.00" arrival="220.50" arrivalPos="93.20" duration="169.50" routeLength="221.25" timeLoss="13.65" maxSpeed="1.42"/>
    </personinfo>
    <personinfo id="person_ES_diag.1" depart="59.50" type="DEFAULT_PEDTYPE" speedFactor="1.13" duration="161.50" waitingTime="0.00" timeLoss="23.91" traveltime="161.50">
        <walk depart="59.50" departPos="100.00" arrival="221.00" arrivalPos="93.20" duration="161.50" routeLength="215.71" timeLoss="23.91" maxSpeed="1.57"/>
    </personinfo>
    <personinfo id="person_NS_w.2" depart="11.00" type="DEFAULT_PEDTYPE" speedFactor="1.00" duration="210.50" waitingTime="0.00" timeLoss="50.87" traveltime="210.50">
        <walk depart="11.00" departPos="100.00" arrival="221.50" arrivalPos="93.20" duration="210.50" routeLength="221.25" timeLoss="50.87" maxSpeed="1.39"/>
    </personinfo>
    <personinfo id="person_NS_w.3" depart="13.00" type="DEFAULT_PEDTYPE" speedFactor="0.99" duration="208.50" waitingTime="0.00" timeLoss="47.11" traveltime="208.50">
        <walk depart="13.00" departPos="100.00" arrival="221.50" arrivalPos="93.20" duration="208.50" routeLength="221.25" timeLoss="47.11" maxSpeed="1.37"/>
    </personinfo>
    <personinfo id="person_NS_w.0" depart="3.50" type="DEFAULT_PEDTYPE" speedFactor="1.00" duration="218.50" waitingTime="0.00" timeLoss="58.72" traveltime="218.50">
        <walk depart="3.50" departPos="100.00" arrival="222.00" arrivalPos="93.20" duration="218.50" routeLength="221.25" timeLoss="58.72" maxSpeed="1.38"/>
    </personinfo>
    <personinfo id="person_ES_diag.0" depart="51.50" type="DEFAULT_PEDTYPE" speedFactor="1.15" duration="170.50" waitingTime="0.00" timeLoss="35.85" traveltime="170.50">
        <walk depart="51.50" departPos="100.00" arrival="222.00" arrivalPos="93.20" duration="170.50" routeLength="215.71" timeLoss="35.85" maxSpeed="1.60"/>
    </personinfo>
    <personinfo id="person_WE_s.0" depart="2.00" type="DEFAULT_PEDTYPE" speedFactor="0.98" duration="220.00" waitingTime="0.00" timeLoss="56.71" traveltime="220.00">
        <walk depart="2.00" departPos="100.00" arrival="222.00" arrivalPos="93.20" duration="220.00" routeLength="221.17" timeLoss="56.71" maxSpeed="1.35"/>
    </personinfo>
    <personinfo id="person_NE_diag.3" depart="41.00" type="DEFAULT_PEDTYPE" speedFactor="1.04" duration="181.00" waitingTime="0.00" timeLoss="31.72" traveltime="181.00">
        <walk depart="41.00" departPos="100.00" arrival="222.00" arrivalPos="93.20" duration="181.00" routeLength="216.12" timeLoss="31.72" maxSpeed="1.45"/>
    </personinfo>
    <tripinfo id="SW_8" depart="40.00" departLane="3_1_3" departPos="5.10" departSpeed="0.00" departDelay="0.00" arrival="222.00" arrivalLane="1_2_2" arrivalPos="186.40" arrivalSpeed="13.00" duration="182.00" routeLength="392.22" waitingTime="142.50" waitingCount="1" stopTime="0.00" timeLoss="150.53" rerouteNo="0" devices="tripinfo_SW_8" vType="cars" speedFactor="0.85" vaporized=""/>
    <tripinfo id="NE_39" depart="177.00" departLane="5_1_3" departPos="5.10" departSpeed="0.00" departDelay="0.00" arrival="222.00" arrivalLane="1_4_2" arrivalPos="186.40" arrivalSpeed="13.00" duration="45.00" routeLength="392.22" waitingTime="3.50" waitingCount="1" stopTime="0.00" timeLoss="13.89" rerouteNo="0" devices="tripinfo_NE_39" vType="cars" speedFactor="0.99" vaporized=""/>
    <personinfo id="person_NE_diag.4" depart="54.00" type="DEFAULT_PEDTYPE" speedFactor="1.07" duration="168.50" waitingTime="0.00" timeLoss="23.49" traveltime="168.50">
        <walk depart="54.00" departPos="100.00" arrival="222.50" arrivalPos="93.20" duration="168.50" routeLength="216.12" timeLoss="23.49" maxSpeed="1.49"/>
    </personinfo>
    <tripinfo id="EN_29" depart="137.00" departLane="4_1_1" departPos="5.10" departSpeed="0.00" departDelay="0.00" arrival="223.00" arrivalLane="1_5_1" arrivalPos="186.40" arrivalSpeed="13.00" duration="86.00" routeLength="379.42" waitingTime="29.50" waitingCount="3" stopTime="0.00" timeLoss="56.00" rerouteNo="0" devices="tripinfo_EN_29" vType="cars" speedFactor="1.15" vaporized=""/>
    <tripinfo id="SW_17" depart="93.50" departLane="3_1_3" departPos="5.10" departSpeed="0.00" departDelay="0.50" arrival="224.00" arrivalLane="1_2_2" arrivalPos="186.40" arrivalSpeed="13.00" duration="130.50" routeLength="392.22" waitingTime="84.00" waitingCount="1" stopTime="0.00" timeLoss="98.91" rerouteNo="0" devices="tripinfo_SW_17" vType="cars" speedFactor="0.83" vaporized=""/>
    <personinfo id="person_NE_diag.5" depart="62.50" type="DEFAULT_PEDTYPE" speedFactor="1.07" duration="162.00" waitingTime="0.00" timeLoss="16.14" traveltime="162.00">
        <walk depart="62.50" departPos="100.00" arrival="224.50" arrivalPos="93.20" duration="162.00" routeLength="216.12" timeLoss="16.14" maxSpeed="1.48"/>
    </personinfo>
    <personinfo id="person_SN_e.0" depart="16.50" type="DEFAULT_PEDTYPE" speedFactor="0.96" duration="208.00" waitingTime="0.00" timeLoss="42.33" traveltime="208.00">
        <walk depart="16.50" departPos="100.00" arrival="224.50" arrivalPos="93.20" duration="208.00" routeLength="221.24" timeLoss="42.33" maxSpeed="1.34"/>
    </personinfo>
    <personinfo id="person_NE_diag.6" depart="70.50" type="DEFAULT_PEDTYPE" speedFactor="1.13" duration="154.50" waitingTime="0.00" timeLoss="17.00" traveltime="154.50">
        <walk depart="70.50" departPos="100.00" arrival="225.00" arrivalPos="93.20" duration="154.50" routeLength="216.12" timeLoss="17.00" maxSpeed="1.57"/>
    </personinfo>
    <personinfo id="person_NS_w.4" depart="22.50" type="DEFAULT_PEDTYPE" speedFactor="0.96" duration="203.00" waitingTime="0.00" timeLoss="37.01" traveltime="203.00">
        <walk depart="22.50" departPos="100.00" arrival="225.50" arrivalPos="93.20" duration="203.00" routeLength="221.25" timeLoss="37.01" maxSpeed="1.33"/>
    </personinfo>
    <personinfo id="person_SN_e.1" depart="49.50" type="DEFAULT_PEDTYPE" speedFactor="0.96" duration="176.00" waitingTime="0.00" timeLoss="10.02" traveltime="176.00">
        <walk depart="49.50" departPos="100.00" arrival="225.50" arrivalPos="93.20" duration="176.00" routeLength="221.24" timeLoss="10.02" maxSpeed="1.33"/>
    </personinfo>
    <personinfo id="person_NS_w.6" depart="36.00" type="DEFAULT_PEDTYPE" speedFactor="0.95" duration="190.50" waitingTime="0.00" timeLoss="22.43" traveltime="190.50">
        <walk depart="36.00" departPos="100.00" arrival="226.50" arrivalPos="93.20" duration="190.50" routeLength="221.25" timeLoss="22.43" maxSpeed="1.32"/>
    </personinfo>
    <personinfo id="person_NE_diag.0" depart="5.00" type="DEFAULT_PEDTYPE" speedFactor="0.99" duration="222.00" waitingTime="0.00" timeLoss="64.36" traveltime="222.00">
        <walk depart="5.00" departPos="100.00" arrival="227.00" arrivalPos="93.20" duration="222.00" routeLength="216.12" timeLoss="64.36" maxSpeed="1.37"/>