<?xml version="1.0" encoding="UTF-8"?>

<!-- generated on 2025-03-12 16:23:21 by Eclipse SUMO GUI Version 1.22.0
<sumoConfiguration xmlns:xsi="http://www.w3.org/2001/XMLSchema-instance" xsi:noNamespaceSchemaLocation="http://sumo.dlr.de/xsd/sumoConfiguration.xsd">

    <input>
        <net-file value="C:\Users\chris\PycharmProjects\UW_CET593_project2\environment/network_model/single_intersection_pedestrian_X.net.xml"/>
        <route-files value="C:\Users\chris\PycharmProjects\UW_CET593_project2\environment/network_model/single_intersection.rou.xml"/>
        <additional-files value="C:\Users\chris\PycharmProjects\UW_CET593_project2\environment/network_model/single_intersection.add.xml"/>
    </input>

    <output>
        <queue-output value="C:\Users\chris\PycharmProjects\UW_CET593_project2\environment/simulation_data/single_intersection/queues_multi_scale_symmetric_pene_100.xml"/>
        <tripinfo-output value="C:\Users\chris\PycharmProjects\UW_CET593_project2\environment/simulation_data/single_intersection/tripinfo_multi_scale_symmetric_pene_100.xml"/>
    </output>

    <time>
        <begin value="0"/>
        <step-length value="0.5"/>
    </time>

    <processing>
        <waiting-time-memory value="1000"/>
    </processing>

    <report>
        <verbose value="true"/>
        <no-step-log value="true"/>
    </report>

    <traci_server>
        <remote-port value="54166"/>
    </traci_server>

    <gui_only>
        <start value="true"/>
    </gui_only>

</sumoConfiguration>
-->

<tripinfos xmlns:xsi="http://www.w3.org/2001/XMLSchema-instance" xsi:noNamespaceSchemaLocation="http://sumo.dlr.de/xsd/tripinfo_file.xsd">
    <tripinfo id="SN_0" depart="0.00" departLane="3_1_2" departPos="5.10" departSpeed="0.00" departDelay="0.00" arrival="35.00" arrivalLane="1_5_1" arrivalPos="186.40" arrivalSpeed="13.00" duration="35.00" routeLength="395.15" waitingTime="0.00" waitingCount="0" stopTime="0.00" timeLoss="4.21" rerouteNo="0" devices="tripinfo_SN_0" vType="cars" speedFactor="0.97" vaporized=""/>
    <tripinfo id="NS_1" depart="1.00" departLane="5_1_2" departPos="5.10" departSpeed="0.00" departDelay="0.00" arrival="37.00" arrivalLane="1_3_1" arrivalPos="186.40" arrivalSpeed="13.00" duration="36.00" routeLength="395.15" waitingTime="0.00" waitingCount="0" stopTime="0.00" timeLoss="5.41" rerouteNo="0" devices="tripinfo_NS_1" vType="cars" speedFactor="1.11" vaporized=""/>
    <tripinfo id="SN_2" depart="5.00" departLane="3_1_2" departPos="5.10" departSpeed="0.00" departDelay="0.00" arrival="40.50" arrivalLane="1_5_1" arrivalPos="186.40" arrivalSpeed="13.00" duration="35.50" routeLength="395.15" waitingTime="0.00" waitingCount="0" stopTime="0.00" timeLoss="4.90" rerouteNo="0" devices="tripinfo_SN_2" vType="cars" speedFactor="0.86" vaporized=""/>
    <tripinfo id="WE_0" depart="1.00" departLane="2_1_2" departPos="5.10" departSpeed="0.00" departDelay="0.00" arrival="50.00" arrivalLane="1_4_1" arrivalPos="186.40" arrivalSpeed="13.00" duration="49.00" routeLength="395.15" waitingTime="10.50" waitingCount="1" stopTime="0.00" timeLoss="18.55" rerouteNo="0" devices="tripinfo_WE_0" vType="cars" speedFactor="0.91" vaporized=""/>
    <tripinfo id="WE_1" depart="10.00" departLane="2_1_2" departPos="5.10" departSpeed="0.00" departDelay="0.00" arrival="50.00" arrivalLane="1_4_2" arrivalPos="186.40" arrivalSpeed="13.00" duration="40.00" routeLength="395.15" waitingTime="1.00" waitingCount="1" stopTime="0.00" timeLoss="9.55" rerouteNo="0" devices="tripinfo_WE_1" vType="cars" speedFactor="1.06" vaporized=""/>
    <tripinfo id="WS_3" depart="7.00" departLane="2_1_1" departPos="5.10" departSpeed="0.00" departDelay="0.00" arrival="51.00" arrivalLane="1_3_1" arrivalPos="186.40" arrivalSpeed="13.00" duration="44.00" routeLength="379.43" waitingTime="0.00" waitingCount="0" stopTime="0.00" timeLoss="13.88" rerouteNo="0" devices="tripinfo_WS_3" vType="cars" speedFactor="0.95" vaporized=""/>
    <tripinfo id="WE_2" depart="12.50" departLane="2_1_2" departPos="5.10" departSpeed="0.00" departDelay="0.50" arrival="51.50" arrivalLane="1_4_1" arrivalPos="186.40" arrivalSpeed="13.00" duration="39.00" routeLength="395.15" waitingTime="0.00" waitingCount="0" stopTime="0.00" timeLoss="8.59" rerouteNo="0" devices="tripinfo_WE_2" vType="cars" speedFactor="0.94" vaporized=""/>
    <tripinfo id="EW_0" depart="19.00" departLane="4_1_2" departPos="5.10" departSpeed="0.00" departDelay="0.00" arrival="54.50" arrivalLane="1_2_1" arrivalPos="186.40" arrivalSpeed="13.00" duration="35.50" routeLength="395.15" waitingTime="0.00" waitingCount="0" stopTime="0.00" timeLoss="4.92" rerouteNo="0" devices="tripinfo_EW_0" vType="cars" speedFactor="1.05" vaporized=""/>
    <tripinfo id="EW_1" depart="21.50" departLane="4_1_2" departPos="5.10" departSpeed="0.00" departDelay="0.50" arrival="57.50" arrivalLane="1_2_1" arrivalPos="186.40" arrivalSpeed="13.00" duration="36.00" routeLength="395.15" waitingTime="0.00" waitingCount="0" stopTime="0.00" timeLoss="5.24" rerouteNo="0" devices="tripinfo_EW_1" vType="cars" speedFactor="1.01" vaporized=""/>
    <tripinfo id="ES_4" depart="14.00" departLane="4_1_3" departPos="5.10" departSpeed="0.00" departDelay="0.00" arrival="68.00" arrivalLane="1_3_2" arrivalPos="186.40" arrivalSpeed="13.00" duration="54.00" routeLength="392.22" waitingTime="11.50" waitingCount="1" stopTime="0.00" timeLoss="22.83" rerouteNo="0" devices="tripinfo_ES_4" vType="cars" speedFactor="0.97" vaporized=""/>
    <tripinfo id="ES_6" depart="31.00" departLane="4_1_3" departPos="5.10" departSpeed="0.00" departDelay="0.00" arrival="69.50" arrivalLane="1_3_2" arrivalPos="186.40" arrivalSpeed="13.00" duration="38.50" routeLength="392.22" waitingTime="0.00" waitingCount="0" stopTime="0.00" timeLoss="7.97" rerouteNo="0" devices="tripinfo_ES_6" vType="cars" speedFactor="1.07" vaporized=""/>
    <tripinfo id="NS_5" depart="22.00" departLane="5_1_2" departPos="5.10" departSpeed="0.00" departDelay="0.00" arrival="79.00" arrivalLane="1_3_1" arrivalPos="186.40" arrivalSpeed="13.00" duration="57.00" routeLength="395.15" waitingTime="18.00" waitingCount="1" stopTime="0.00" timeLoss="26.55" rerouteNo="0" devices="tripinfo_NS_5" vType="cars" speedFactor="1.01" vaporized=""/>
    <tripinfo id="NW_7" depart="37.00" departLane="5_1_1" departPos="5.10" departSpeed="0.00" departDelay="0.00" arrival="79.50" arrivalLane="1_2_1" arrivalPos="186.40" arrivalSpeed="13.00" duration="42.50" routeLength="379.43" waitingTime="0.00" waitingCount="0" stopTime="0.00" timeLoss="12.84" rerouteNo="0" devices="tripinfo_NW_7" vType="cars" speedFactor="1.13" vaporized=""/>
    <tripinfo id="SN_10" depart="48.00" departLane="3_1_2" departPos="5.10" departSpeed="0.00" departDelay="0.00" arrival="83.50" arrivalLane="1_5_1" arrivalPos="186.40" arrivalSpeed="13.00" duration="35.50" routeLength="395.15" waitingTime="0.00" waitingCount="0" stopTime="0.00" timeLoss="4.85" rerouteNo="0" devices="tripinfo_SN_10" vType="cars" speedFactor="1.02" vaporized=""/>
    <tripinfo id="NW_9" depart="41.00" departLane="5_1_1" departPos="5.10" departSpeed="0.00" departDelay="0.00" arrival="88.50" arrivalLane="1_2_1" arrivalPos="186.40" arrivalSpeed="9.01" duration="47.50" routeLength="379.43" waitingTime="0.00" waitingCount="0" stopTime="0.00" timeLoss="17.09" rerouteNo="0" devices="tripinfo_NW_9" vType="cars" speedFactor="0.91" vaporized=""/>
    <tripinfo id="WE_3" depart="43.00" departLane="2_1_2" departPos="5.10" departSpeed="0.00" departDelay="0.00" arrival="96.00" arrivalLane="1_4_1" arrivalPos="186.40" arrivalSpeed="13.00" duration="53.00" routeLength="395.15" waitingTime="11.50" waitingCount="1" stopTime="0.00" timeLoss="22.55" rerouteNo="0" devices="tripinfo_WE_3" vType="cars" speedFactor="1.05" vaporized=""/>
    <tripinfo id="EW_2" depart="46.00" departLane="4_1_2" departPos="5.10" departSpeed="0.00" departDelay="0.00" arrival="96.00" arrivalLane="1_2_1" arrivalPos="186.40" arrivalSpeed="13.00" duration="50.00" routeLength="395.15" waitingTime="9.50" waitingCount="1" stopTime="0.00" timeLoss="19.55" rerouteNo="0" devices="tripinfo_EW_2" vType="cars" speedFactor="1.05" vaporized=""/>
    <tripinfo id="WE_4" depart="67.00" departLane="2_1_2" departPos="5.10" departSpeed="0.00" departDelay="0.00" arrival="103.00" arrivalLane="1_4_1" arrivalPos="186.40" arrivalSpeed="13.00" duration="36.00" routeLength="395.15" waitingTime="0.00" waitingCount="0" stopTime="0.00" timeLoss="5.36" rerouteNo="0" devices="tripinfo_WE_4" vType="cars" speedFactor="0.96" vaporized=""/>
    <tripinfo id="EW_3" depart="68.00" departLane="4_1_2" departPos="5.10" departSpeed="0.00" departDelay="0.00" arrival="103.50" arrivalLane="1_2_1" arrivalPos="186.40" arrivalSpeed="13.00" duration="35.50" routeLength="395.15" waitingTime="0.00" waitingCount="0" stopTime="0.00" timeLoss="5.04" rerouteNo="0" devices="tripinfo_EW_3" vType="cars" speedFactor="0.98" vaporized=""/>
    <tripinfo id="SN_11" depart="70.00" departLane="3_1_2" departPos="5.10" departSpeed="0.00" departDelay="0.00" arrival="113.00" arrivalLane="1_5_1" arrivalPos="186.40" arrivalSpeed="13.00" duration="43.00" routeLength="395.15" waitingTime="5.50" waitingCount="1" stopTime="0.00" timeLoss="12.55" rerouteNo="0" devices="tripinfo_SN_11" vType="cars" speedFactor="1.02" vaporized=""/>
    <tripinfo id="SW_8" depart="40.00" departLane="3_1_3" departPos="5.10" departSpeed="0.00" departDelay="0.00" arrival="114.00" arrivalLane="1_2_2" arrivalPos="186.40" arrivalSpeed="13.00" duration="74.00" routeLength="392.22" waitingTime="29.50" waitingCount="1" stopTime="0.00" timeLoss="42.53" rerouteNo="0" devices="tripinfo_SW_8" vType="cars" speedFactor="0.85" vaporized=""/>
    <tripinfo id="WN_13" depart="85.00" departLane="2_1_3" departPos="5.10" departSpeed="0.00" departDelay="0.00" arrival="125.00" arrivalLane="1_5_2" arrivalPos="186.40" arrivalSpeed="13.00" duration="40.00" routeLength="392.22" waitingTime="0.00" waitingCount="0" stopTime="0.00" timeLoss="9.31" rerouteNo="0" devices="tripinfo_WN_13" vType="cars" speedFactor="0.99" vaporized=""/>
    <tripinfo id="WE_5" depart="86.00" departLane="2_1_2" departPos="5.10" departSpeed="0.00" departDelay="0.00" arrival="125.00" arrivalLane="1_4_1" arrivalPos="186.40" arrivalSpeed="13.00" duration="39.00" routeLength="395.15" waitingTime="0.00" waitingCount="0" stopTime="0.00" timeLoss="8.17" rerouteNo="0" devices="tripinfo_WE_5" vType="cars" speedFactor="0.99" vaporized=""/>
    <tripinfo id="WE_6" depart="88.50" departLane="2_1_2" departPos="5.10" departSpeed="0.00" departDelay="1.50" arrival="127.00" arrivalLane="1_4_1" arrivalPos="186.40" arrivalSpeed="13.00" duration="38.50" routeLength="395.15" waitingTime="0.00" waitingCount="0" stopTime="0.00" timeLoss="7.98" rerouteNo="0" devices="tripinfo_WE_6" vType="cars" speedFactor="0.93" vaporized=""/>
    <tripinfo id="NS_12" depart="80.00" departLane="5_1_2" departPos="5.10" departSpeed="0.00" departDelay="0.00" arrival="137.00" arrivalLane="1_3_1" arrivalPos="186.40" arrivalSpeed="13.00" duration="57.00" routeLength="395.15" waitingTime="17.50" waitingCount="1" stopTime="0.00" timeLoss="26.55" rerouteNo="0" devices="tripinfo_NS_12" vType="cars" speedFactor="1.07" vaporized=""/>
    <tripinfo id="SN_14" depart="90.00" departLane="3_1_2" departPos="5.10" departSpeed="0.00" departDelay="0.00" arrival="137.00" arrivalLane="1_5_1" arrivalPos="186.40" arrivalSpeed="13.00" duration="47.00" routeLength="395.15" waitingTime="6.50" waitingCount="1" stopTime="0.00" timeLoss="16.55" rerouteNo="0" devices="tripinfo_SN_14" vType="cars" speedFactor="1.05" vaporized=""/>
    <tripinfo id="NS_15" depart="92.00" departLane="5_1_2" departPos="5.10" departSpeed="0.00" departDelay="0.00" arrival="137.00" arrivalLane="1_3_2" arrivalPos="186.40" arrivalSpeed="13.00" duration="45.00" routeLength="395.15" waitingTime="2.00" waitingCount="1" stopTime="0.00" timeLoss="14.55" rerouteNo="0" devices="tripinfo_NS_15" vType="cars" speedFactor="1.01" vaporized=""/>
    <tripinfo id="SN_16" depart="93.00" departLane="3_1_2" departPos="5.10" departSpeed="0.00" departDelay="0.00" arrival="137.00" arrivalLane="1_5_2" arrivalPos="186.40" arrivalSpeed="13.00" duration="44.00" routeLength="395.15" waitingTime="2.00" waitingCount="1" stopTime="0.00" timeLoss="13.55" rerouteNo="0" devices="tripinfo_SN_16" vType="cars" speedFactor="0.91" vaporized=""/>
    <tripinfo id="NS_18" depart="99.00" departLane="5_1_2" departPos="5.10" departSpeed="0.00" departDelay="0.00" arrival="138.50" arrivalLane="1_3_1" arrivalPos="186.40" arrivalSpeed="13.00" duration="39.50" routeLength="395.15" waitingTime="0.00" waitingCount="0" stopTime="0.00" timeLoss="9.09" rerouteNo="0" devices="tripinfo_NS_18" vType="cars" speedFactor="0.84" vaporized=""/>
    <tripinfo id="SE_19" depart="100.00" departLane="3_1_1" departPos="5.10" departSpeed="0.00" departDelay="0.00" arrival="139.00" arrivalLane="1_4_1" arrivalPos="186.40" arrivalSpeed="13.00" duration="39.00" routeLength="379.42" waitingTime="0.00" waitingCount="0" stopTime="0.00" timeLoss="8.75" rerouteNo="0" devices="tripinfo_SE_19" vType="cars" speedFactor="0.92" vaporized=""/>
    <tripinfo id="EN_21" depart="111.00" departLane="4_1_1" departPos="5.10" departSpeed="0.00" departDelay="0.00" arrival="183.50" arrivalLane="1_5_1" arrivalPos="186.40" arrivalSpeed="13.00" duration="72.50" routeLength="379.42" waitingTime="30.50" waitingCount="1" stopTime="0.00" timeLoss="42.50" rerouteNo="0" devices="tripinfo_EN_21" vType="cars" speedFactor="1.00" vaporized=""/>
    <tripinfo id="WS_23" depart="125.00" departLane="2_1_1" departPos="5.10" departSpeed="0.00" departDelay="0.00" arrival="183.50" arrivalLane="1_3_1" arrivalPos="186.40" arrivalSpeed="13.00" duration="58.50" routeLength="379.43" waitingTime="19.50" waitingCount="1" stopTime="0.00" timeLoss="28.29" rerouteNo="0" devices="tripinfo_WS_23" vType="cars" speedFactor="1.02" vaporized=""/>
    <tripinfo id="EW_4" depart="123.00" departLane="4_1_2" departPos="5.10" departSpeed="0.00" departDelay="0.00" arrival="184.00" arrivalLane="1_2_1" arrivalPos="186.40" arrivalSpeed="13.00" duration="61.00" routeLength="395.15" waitingTime="23.50" waitingCount="1" stopTime="0.00" timeLoss="30.55" rerouteNo="0" devices="tripinfo_EW_4" vType="cars" speedFactor="1.11" vaporized=""/>
    <tripinfo id="WE_7" depart="125.00" departLane="2_1_2" departPos="5.10" departSpeed="0.00" departDelay="0.00" arrival="184.00" arrivalLane="1_4_2" arrivalPos="186.40" arrivalSpeed="13.00" duration="59.00" routeLength="395.15" waitingTime="19.00" waitingCount="1" stopTime="0.00" timeLoss="28.55" rerouteNo="0" devices="tripinfo_WE_7" vType="cars" speedFactor="1.02" vaporized=""/>
    <tripinfo id="WE_8" depart="134.00" departLane="2_1_2" departPos="5.10" departSpeed="0.00" departDelay="0.00" arrival="185.50" arrivalLane="1_4_1" arrivalPos="186.40" arrivalSpeed="13.00" duration="51.50" routeLength="395.15" waitingTime="6.00" waitingCount="3" stopTime="0.00" timeLoss="20.89" rerouteNo="0" devices="tripinfo_WE_8" vType="cars" speedFactor="1.01" vaporized=""/>
    <tripinfo id="EW_6" depart="137.00" departLane="4_1_2" departPos="5.10" departSpeed="0.00" departDelay="0.00" arrival="185.50" arrivalLane="1_2_2" arrivalPos="186.40" arrivalSpeed="13.00" duration="48.50" routeLength="395.15" waitingTime="1.50" waitingCount="1" stopTime="0.00" timeLoss="17.90" rerouteNo="0" devices="tripinfo_EW_6" vType="cars" speedFactor="1.08" vaporized=""/>
    <tripinfo id="EW_5" depart="125.00" departLane="4_1_2" departPos="5.10" departSpeed="0.00" departDelay="0.00" arrival="186.00" arrivalLane="1_2_1" arrivalPos="186.40" arrivalSpeed="13.00" duration="61.00" routeLength="395.15" waitingTime="13.50" waitingCount="1" stopTime="0.00" timeLoss="30.33" rerouteNo="0" devices="tripinfo_EW_5" vType="cars" speedFactor="1.09" vaporized=""/>
    <tripinfo id="EN_29" depart="137.00" departLane="4_1_1" departPos="5.10" departSpeed="0.00" departDelay="0.00" arrival="187.00" arrivalLane="1_5_1" arrivalPos="186.40" arrivalSpeed="13.00" duration="50.00" routeLength="379.42" waitingTime="3.00" waitingCount="3" stopTime="0.00" timeLoss="20.39" rerouteNo="0" devices="tripinfo_EN_29" vType="cars" speedFactor="1.15" vaporized=""/>
    <tripinfo id="SN_20" depart="109.00" departLane="3_1_2" departPos="5.10" departSpeed="0.00" departDelay="0.00" arrival="196.00" arrivalLane="1_5_1" arrivalPos="186.40" arrivalSpeed="13.00" duration="87.00" routeLength="395.15" waitingTime="43.50" waitingCount="1" stopTime="0.00" timeLoss="56.55" rerouteNo="0" devices="tripinfo_SN_20" vType="cars" speedFactor="0.89" vaporized=""/>
    <tripinfo id="NS_24" depart="125.00" departLane="5_1_2" departPos="5.10" departSpeed="0.00" departDelay="0.00" arrival="196.00" arrivalLane="1_3_1" arrivalPos="186.40" arrivalSpeed="13.00" duration="71.00" routeLength="395.15" waitingTime="31.50" waitingCount="1" stopTime="0.00" timeLoss="40.55" rerouteNo="0" devices="tripinfo_NS_24" vType="cars" speedFactor="1.22" vaporized=""/>
    <tripinfo id="SN_25" depart="126.00" departLane="3_1_2" departPos="5.10" departSpeed="0.00" departDelay="0.00" arrival="196.00" arrivalLane="1_5_2" arrivalPos="186.40" arrivalSpeed="13.00" duration="70.00" routeLength="395.15" waitingTime="31.00" waitingCount="1" stopTime="0.00" timeLoss="39.55" rerouteNo="0" devices="tripinfo_SN_25" vType="cars" speedFactor="0.91" vaporized=""/>
    <tripinfo id="NS_26" depart="130.00" departLane="5_1_2" departPos="5.10" departSpeed="0.00" departDelay="0.00" arrival="196.00" arrivalLane="1_3_2" arrivalPos="186.40" arrivalSpeed="13.00" duration="66.00" routeLength="395.15" waitingTime="26.50" waitingCount="1" stopTime="0.00" timeLoss="35.55" rerouteNo="0" devices="tripinfo_NS_26" vType="cars" speedFactor="1.04" vaporized=""/>
    <tripinfo id="SN_27" depart="130.00" departLane="3_1_2" departPos="5.10" departSpeed="0.00" departDelay="0.00" arrival="197.50" arrivalLane="1_5_1" arrivalPos="186.40" arrivalSpeed="13.00" duration="67.50" routeLength="395.15" waitingTime="23.50" waitingCount="2" stopTime="0.00" timeLoss="37.09" rerouteNo="0" devices="tripinfo_SN_27" vType="cars" speedFactor="1.11" vaporized=""/>
    <tripinfo id="NS_30" depart="138.00" departLane="5_1_2" departPos="5.10" departSpeed="0.00" departDelay="0.00" arrival="197.50" arrivalLane="1_3_1" arrivalPos="186.40" arrivalSpeed="13.00" duration="59.50" routeLength="395.15" waitingTime="13.00" waitingCount="1" stopTime="0.00" timeLoss="29.09" rerouteNo="0" devices="tripinfo_NS_30" vType="cars" speedFactor="1.01" vaporized=""/>
    <tripinfo id="NS_31" depart="141.00" departLane="5_1_2" departPos="5.10" departSpeed="0.00" departDelay="2.00" arrival="197.50" arrivalLane="1_3_2" arrivalPos="186.40" arrivalSpeed="13.00" duration="56.50" routeLength="395.15" waitingTime="10.50" waitingCount="4" stopTime="0.00" timeLoss="26.09" rerouteNo="0" devices="tripinfo_NS_31" vType="cars" speedFactor="1.01" vaporized=""/>
    <tripinfo id="NS_34" depart="152.00" departLane="5_1_2" departPos="5.10" departSpeed="0.00" departDelay="0.00" arrival="201.00" arrivalLane="1_3_1" arrivalPos="186.40" arrivalSpeed="13.00" duration="49.00" routeLength="395.15" waitingTime="1.00" waitingCount="2" stopTime="0.00" timeLoss="18.29" rerouteNo="0" devices="tripinfo_NS_34" vType="cars" speedFactor="0.85" vaporized=""/>
    <tripinfo id="NS_38" depart="163.00" departLane="5_1_2" departPos="5.10" departSpeed="0.00" departDelay="0.00" arrival="204.50" arrivalLane="1_3_2" arrivalPos="186.40" arrivalSpeed="13.00" duration="41.50" routeLength="395.15" waitingTime="0.00" waitingCount="0" stopTime="0.00" timeLoss="10.97" rerouteNo="0" devices="tripinfo_NS_38" vType="cars" speedFactor="0.93" vaporized=""/>
    <tripinfo id="NW_33" depart="147.00" departLane="5_1_1" departPos="5.10" departSpeed="0.00" departDelay="0.00" arrival="205.00" arrivalLane="1_2_1" arrivalPos="186.40" arrivalSpeed="9.11" duration="58.00" routeLength="379.43" waitingTime="6.50" waitingCount="2" stopTime="0.00" timeLoss="27.72" rerouteNo="0" devices="tripinfo_NW_33" vType="cars" speedFactor="0.83" vaporized=""/>
    <tripinfo id="SN_35" depart="156.00" departLane="3_1_2" departPos="5.10" departSpeed="0.00" departDelay="0.00" arrival="205.00" arrivalLane="1_5_1" arrivalPos="186.40" arrivalSpeed="9.43" duration="49.00" routeLength="395.15" waitingTime="0.00" waitingCount="0" stopTime="0.00" timeLoss="18.56" rerouteNo="0" devices="tripinfo_SN_35" vType="cars" speedFactor="1.06" vaporized=""/>
    <tripinfo id="NS_32" depart="147.00" departLane="5_1_2" departPos="5.10" departSpeed="0.00" departDelay="0.00" arrival="206.00" arrivalLane="1_3_1" arrivalPos="186.40" arrivalSpeed="9.11" duration="59.00" routeLength="395.15" waitingTime="5.50" waitingCount="3" stopTime="0.00" timeLoss="28.43" rerouteNo="0" devices="tripinfo_NS_32" vType="cars" speedFactor="1.00" vaporized=""/>
    <personinfo id="person_WE_s.2" depart="64.50" type="DEFAULT_PEDTYPE" speedFactor="1.20" duration="144.50" waitingTime="0.00" timeLoss="11.85" traveltime="144.50">
        <walk depart="64.50" departPos="100.00" arrival="209.00" arrivalPos="93.20" duration="144.50" routeLength="221.17" timeLoss="11.85" maxSpeed="1.67"/>
    </personinfo>
    <personinfo id="person_NS_w.1" depart="11.00" type="DEFAULT_PEDTYPE" speedFactor="1.12" duration="203.00" waitingTime="0.00" timeLoss="60.68" traveltime="203.00">
        <walk depart="11.00" departPos="100.00" arrival="214.00" arrivalPos="93.20" duration="203.00" routeLength="221.25" timeLoss="60.68" maxSpeed="1.55"/>
    </personinfo>
    <personinfo id="person_EW_n.0" depart="21.00" type="DEFAULT_PEDTYPE" speedFactor="1.09" duration="195.50" waitingTime="0.00" timeLoss="49.56" traveltime="195.50">
        <walk depart="21.00" departPos="100.00" arrival="216.50" arrivalPos="93.20" duration="195.50" routeLength="221.32" timeLoss="49.56" maxSpeed="1.52"/>
    </personinfo>
    <personinfo id="person_WE_s.1" depart="54.50" type="DEFAULT_PEDTYPE" speedFactor="1.08" duration="162.50" waitingTime="0.00" timeLoss="15.42" traveltime="162.50">
        <walk depart="54.50" departPos="100.00" arrival="217.00" arrivalPos="93.20" duration="162.50" routeLength="221.17" timeLoss="15.42" maxSpeed="1.50"/>
    </personinfo>
    <personinfo id="person_ES_diag.1" depart="59.50" type="DEFAULT_PEDTYPE" speedFactor="1.13" duration="160.00" waitingTime="0.00" timeLoss="22.41" traveltime="160.00">
        <walk depart="59.50" departPos="100.00" arrival="219.50" arrivalPos="93.20" duration="160.00" routeLength="215.71" timeLoss="22.41" maxSpeed="1.57"/>
    </personinfo>
    <personinfo id="person_ES_diag.0" depart="51.50" type="DEFAULT_PEDTYPE" speedFactor="1.15" duration="168.50" waitingTime="0.00" timeLoss="33.85" traveltime="168.50">
        <walk depart="51.50" departPos="100.00" arrival="220.00" arrivalPos="93.20" duration="168.50" routeLength="215.71" timeLoss="33.85" maxSpeed="1.60"/>
    </personinfo>
    <personinfo id="person_SW_diag.1" depart="61.00" type="DEFAULT_PEDTYPE" speedFactor="1.10" duration="160.00" waitingTime="0.00" timeLoss="19.06" traveltime="160.00">
        <walk depart="61.00" departPos="100.00" arrival="221.00" arrivalPos="93.20" duration="160.00" routeLength="216.26" timeLoss="19.06" maxSpeed="1.53"/>
    </personinfo>
    <personinfo id="person_NS_w.0" depart="3.50" type="DEFAULT_PEDTYPE" speedFactor="1.00" duration="220.50" waitingTime="0.00" timeLoss="60.72" traveltime="220.50">
        <walk depart="3.50" departPos="100.00" arrival="224.00" arrivalPos="93.20" duration="220.50" routeLength="221.25" timeLoss="60.72" maxSpeed="1.38"/>
    </personinfo>
    <personinfo id="person_SN_e.3" depart="86.50" type="DEFAULT_PEDTYPE" speedFactor="1.23" duration="138.50" waitingTime="0.00" timeLoss="8.57" traveltime="138.50">
        <walk depart="86.50" departPos="100.00" arrival="225.00" arrivalPos="93.20" duration="138.50" routeLength="221.24" timeLoss="8.57" maxSpeed="1.70"/>
    </personinfo>
    <personinfo id="person_NS_w.7" depart="51.00" type="DEFAULT_PEDTYPE" speedFactor="1.02" duration="174.50" waitingTime="0.00" timeLoss="18.65" traveltime="174.50">
        <walk depart="51.00" departPos="100.00" arrival="225.50" arrivalPos="93.20" duration="174.50" routeLength="221.25" timeLoss="18.65" maxSpeed="1.42"/>
    </personinfo>
    <personinfo id="person_NS_w.3" depart="13.00" type="DEFAULT_PEDTYPE" speedFactor="0.99" duration="213.00" waitingTime="0.00" timeLoss="51.61" traveltime="213.00">
        <walk depart="13.00" departPos="100.00" arrival="226.00" arrivalPos="93.20" duration="213.00" routeLength="221.25" timeLoss="51.61" maxSpeed="1.37"/>
    </personinfo>
    <personinfo id="person_NE_diag.3" depart="41.00" type="DEFAULT_PEDTYPE" speedFactor="1.04" duration="185.00" waitingTime="0.00" timeLoss="35.72" traveltime="185.00">
        <walk depart="41.00" departPos="100.00" arrival="226.00" arrivalPos="93.20" duration="185.00" routeLength="216.12" timeLoss="35.72" maxSpeed="1.45"/>
    </personinfo>
    <personinfo id="person_NS_w.2" depart="11.00" type="DEFAULT_PEDTYPE" speedFactor="1.00" duration="215.50" waitingTime="0.00" timeLoss="55.87" traveltime="215.50">
        <walk depart="11.00" departPos="100.00" arrival="226.50" arrivalPos="93.20" duration="215.50" routeLength="221.25" timeLoss="55.87" maxSpeed="1.39"/>
    </personinfo>
    <personinfo id="person_NE_diag.4" depart="54.00" type="DEFAULT_PEDTYPE" speedFactor="1.07" duration="172.50" waitingTime="0.00" timeLoss="27.49" traveltime="172.50">
        <walk depart="54.00" departPos="100.00" arrival="226.50" arrivalPos="93.20" duration="172.50" routeLength="216.12" timeLoss="27.49" maxSpeed="1.49"/>
    </personinfo>
    <personinfo id="person_NS_w.9" depart="67.00" type="DEFAULT_PEDTYPE" speedFactor="1.06" duration="160.00" waitingTime="0.00" timeLoss="9.11" traveltime="160.00">
        <walk depart="67.00" departPos="100.00" arrival="227.00" arrivalPos="93.20" duration="160.00" routeLength="221.25" timeLoss="9.11" maxSpeed="1.47"/>
    </personinfo>
    <personinfo id="person_NE_diag.6" depart="70.50" type="DEFAULT_PEDTYPE" speedFactor="1.13" duration="156.50" waitingTime="0.00" timeLoss="19.00" traveltime="156.50">
        <walk depart="70.50" departPos="100.00" arrival="227.00" arrivalPos="93.20" duration="156.50" routeLength="216.12" timeLoss="19.00" maxSpeed="1.57"/>
    </personinfo>
    <personinfo id="person_WE_s.0" depart="2.00" type="DEFAULT_PEDTYPE" speedFactor="0.98" duration="225.00" waitingTime="0.00" timeLoss="61.71" traveltime="225.00">
        <walk depart="2.00" departPos="100.00" arrival="227.00" arrivalPos="93.20" duration="225.00" routeLength="221.17" timeLoss="61.71" maxSpeed="1.35"/>
    </personinfo>
    <personinfo id="person_SN_e.1" depart="49.50" type="DEFAULT_PEDTYPE" speedFactor="0.96" duration="178.00" waitingTime="0.00" timeLoss="12.02" traveltime="178.00">
        <walk depart="49.50" departPos="100.00" arrival="227.50" arrivalPos="93.20" duration="178.00" routeLength="221.24" timeLoss="12.02" maxSpeed="1.33"/>
    </personinfo>
    <personinfo id="person_WN_diag.3" depart="75.00" type="DEFAULT_PEDTYPE" speedFactor="1.13" duration="154.00" waitingTime="0.00" timeLoss="16.26" traveltime="154.00">
        <walk depart="75.00" departPos="100.00" arrival="229.00" arrivalPos="93.20" duration="154.00" routeLength="215.58" timeLoss="16.26" maxSpeed="1.57"/>
    </personinfo>
    <personinfo id="person_SN_e.0" depart="16.50" type="DEFAULT_PEDTYPE" speedFactor="0.96" duration="212.50" waitingTime="0.00" timeLoss="46.83" traveltime="212.50">
        <walk depart="16.50" departPos="100.00" arrival="229.00" arrivalPos="93.20" duration="212.50" routeLength="221.24" timeLoss="46.83" maxSpeed="1.34"/>
    </personinfo>
    <personinfo id="person_NS_w.6" depart="36.00" type="DEFAULT_PEDTYPE" speedFactor="0.95" duration="194.50" waitingTime="0.00" timeLoss="26.43" traveltime="194.50">
        <walk depart="36.00" departPos="100.00" arrival="230.50" arrivalPos="93.20" duration="194.50" routeLength="221.25" timeLoss="26.43" maxSpeed="1.32"/>
    </personinfo>
    <personinfo id="person_EW_n.1" depart="38.00" type="DEFAULT_PEDTYPE" speedFactor="0.93" duration="193.00" waitingTime="0.00" timeLoss="22.30" traveltime="193.00">
        <walk depart="38.00" departPos="100.00" arrival="231.00" arrivalPos="93.20" duration="193.00" routeLength="221.32" timeLoss="22.30" maxSpeed="1.30"/>
    </personinfo>
    <personinfo id="person_NS_w.10" depart="78.50" type="DEFAULT_PEDTYPE" speedFactor="1.12" duration="152.50" waitingTime="0.00" timeLoss="9.98" traveltime="152.50">
        <walk depart="78.50" departPos="100.00" arrival="231.00" arrivalPos="93.20" duration="152.50" routeLength="221.25" timeLoss="9.98" maxSpeed="1.55"/>
    </personinfo>
    <personinfo id="person_NS_w.4" depart="22.50" type="DEFAULT_PEDTYPE" speedFactor="0.96" duration="209.00" waitingTime="0.00" timeLoss="43.01" traveltime="209.00">
        <walk depart="22.50" departPos="100.00" arrival="231.50" arrivalPos="93.20" duration="209.00" routeLength="221.25" timeLoss="43.01" maxSpeed="1.33"/>
    </personinfo>
    <personinfo id="person_NE_diag.0" depart="5.00" type="DEFAULT_PEDTYPE" speedFactor="0.99" duration="226.50" waitingTime="0.00" timeLoss="68.86" traveltime="226.50">
        <walk depart="5.00" departPos="100.00" arrival="231.50" arrivalPos="93.20" duration="226.50" routeLength="216.12" timeLoss="68.86" maxSpeed="1.37"/>
    </personinfo>
    <personinfo id="person_NE_diag.5" depart="62.50" type="DEFAULT_PEDTYPE" speedFactor="1.07" duration="169.50" waitingTime="0.00" timeLoss="23.64" traveltime="169.50">
        <walk depart="62.50" departPos="100.00" arrival="232.00" arrivalPos="93.20" duration="169.50" routeLength="216.12" timeLoss="23.64" maxSpeed="1.48"/>
    </personinfo>
    <personinfo id="person_SW_diag.2" depart="61.50" type="DEFAULT_PEDTYPE" speedFactor="1.00" duration="173.50" waitingTime="0.00" timeLoss="18.15" traveltime="173.50">