<?xml version="1.0" encoding="UTF-8"?>

<!-- generated on 2025-03-12 17:09:40 by Eclipse SUMO GUI Version 1.22.0
<sumoConfiguration xmlns:xsi="http://www.w3.org/2001/XMLSchema-instance" xsi:noNamespaceSchemaLocation="http://sumo.dlr.de/xsd/sumoConfiguration.xsd">

    <input>
        <net-file value="C:\Users\chris\PycharmProjects\UW_CET593_project2\environment/network_model/single_intersection_pedestrian_X.net.xml"/>
        <route-files value="C:\Users\chris\PycharmProjects\UW_CET593_project2\environment/network_model/single_intersection.rou.xml"/>
        <additional-files value="C:\Users\chris\PycharmProjects\UW_CET593_project2\environment/network_model/single_intersection.add.xml"/>
    </input>

    <output>
        <queue-output value="C:\Users\chris\PycharmProjects\UW_CET593_project2\environment/simulation_data/single_intersection/queues_multi_scale_symmetric_pene_20.xml"/>
        <tripinfo-output value="C:\Users\chris\PycharmProjects\UW_CET593_project2\environment/simulation_data/single_intersection/tripinfo_multi_scale_symmetric_pene_20.xml"/>
    </output>

    <time>
        <begin value="0"/>
        <step-length value="0.5"/>
    </time>

    <processing>
        <waiting-time-memory value="1000"/>
    </processing>

    <report>
        <verbose value="true"/>
        <no-step-log value="true"/>
    </report>

    <traci_server>
        <remote-port value="49392"/>
    </traci_server>

    <gui_only>
        <start value="true"/>
    </gui_only>

</sumoConfiguration>
-->

<tripinfos xmlns:xsi="http://www.w3.org/2001/XMLSchema-instance" xsi:noNamespaceSchemaLocation="http://sumo.dlr.de/xsd/tripinfo_file.xsd">
    <tripinfo id="SN_0" depart="0.00" departLane="3_1_2" departPos="5.10" departSpeed="0.00" departDelay="0.00" arrival="35.50" arrivalLane="1_5_1" arrivalPos="186.40" arrivalSpeed="11.82" duration="35.50" routeLength="395.15" waitingTime="0.00" waitingCount="0" stopTime="0.00" timeLoss="4.99" rerouteNo="0" devices="tripinfo_SN_0" vType="cars" speedFactor="0.97" vaporized=""/>
    <tripinfo id="NS_1" depart="1.00" departLane="5_1_2" departPos="5.10" departSpeed="0.00" departDelay="0.00" arrival="38.00" arrivalLane="1_3_1" arrivalPos="186.40" arrivalSpeed="12.65" duration="37.00" routeLength="395.15" waitingTime="0.00" waitingCount="0" stopTime="0.00" timeLoss="6.30" rerouteNo="0" devices="tripinfo_NS_1" vType="cars" speedFactor="1.11" vaporized=""/>
    <tripinfo id="SN_2" depart="5.00" departLane="3_1_2" departPos="5.10" departSpeed="0.00" departDelay="0.00" arrival="40.00" arrivalLane="1_5_1" arrivalPos="186.40" arrivalSpeed="11.68" duration="35.00" routeLength="395.15" waitingTime="0.00" waitingCount="0" stopTime="0.00" timeLoss="4.48" rerouteNo="0" devices="tripinfo_SN_2" vType="cars" speedFactor="0.86" vaporized=""/>
    <tripinfo id="WE_1" depart="10.00" departLane="2_1_2" departPos="5.10" departSpeed="0.00" departDelay="0.00" arrival="52.00" arrivalLane="1_4_2" arrivalPos="186.40" arrivalSpeed="12.38" duration="42.00" routeLength="395.15" waitingTime="2.50" waitingCount="1" stopTime="0.00" timeLoss="11.28" rerouteNo="0" devices="tripinfo_WE_1" vType="cars" speedFactor="1.06" vaporized=""/>
    <tripinfo id="WE_0" depart="1.00" departLane="2_1_2" departPos="5.10" departSpeed="0.00" departDelay="0.00" arrival="53.00" arrivalLane="1_4_1" arrivalPos="186.40" arrivalSpeed="12.26" duration="52.00" routeLength="395.15" waitingTime="10.50" waitingCount="1" stopTime="0.00" timeLoss="21.38" rerouteNo="0" devices="tripinfo_WE_0" vType="cars" speedFactor="0.91" vaporized=""/>
    <tripinfo id="WE_2" depart="12.50" departLane="2_1_2" departPos="5.10" departSpeed="0.00" departDelay="0.50" arrival="53.50" arrivalLane="1_4_2" arrivalPos="186.40" arrivalSpeed="13.00" duration="41.00" routeLength="395.15" waitingTime="0.00" waitingCount="0" stopTime="0.00" timeLoss="10.27" rerouteNo="0" devices="tripinfo_WE_2" vType="cars" speedFactor="0.94" vaporized=""/>
    <tripinfo id="WS_3" depart="7.00" departLane="2_1_1" departPos="5.10" departSpeed="0.00" departDelay="0.00" arrival="54.00" arrivalLane="1_3_1" arrivalPos="186.40" arrivalSpeed="12.79" duration="47.00" routeLength="379.43" waitingTime="2.50" waitingCount="1" stopTime="0.00" timeLoss="16.68" rerouteNo="0" devices="tripinfo_WS_3" vType="cars" speedFactor="0.95" vaporized=""/>
    <tripinfo id="EW_0" depart="19.00" departLane="4_1_2" departPos="5.10" departSpeed="0.00" departDelay="0.00" arrival="54.50" arrivalLane="1_2_1" arrivalPos="186.40" arrivalSpeed="13.00" duration="35.50" routeLength="395.15" waitingTime="0.00" waitingCount="0" stopTime="0.00" timeLoss="4.92" rerouteNo="0" devices="tripinfo_EW_0" vType="cars" speedFactor="1.05" vaporized=""/>
    <tripinfo id="EW_1" depart="21.50" departLane="4_1_2" departPos="5.10" departSpeed="0.00" departDelay="0.50" arrival="57.00" arrivalLane="1_2_1" arrivalPos="186.40" arrivalSpeed="12.47" duration="35.50" routeLength="395.15" waitingTime="0.00" waitingCount="0" stopTime="0.00" timeLoss="4.71" rerouteNo="0" devices="tripinfo_EW_1" vType="cars" speedFactor="1.01" vaporized=""/>
    <tripinfo id="ES_4" depart="14.00" departLane="4_1_3" departPos="5.10" departSpeed="0.00" departDelay="0.00" arrival="69.50" arrivalLane="1_3_2" arrivalPos="186.40" arrivalSpeed="12.42" duration="55.50" routeLength="392.22" waitingTime="14.50" waitingCount="1" stopTime="0.00" timeLoss="24.75" rerouteNo="0" devices="tripinfo_ES_4" vType="cars" speedFactor="0.97" vaporized=""/>
    <tripinfo id="ES_6" depart="31.00" departLane="4_1_3" departPos="5.10" departSpeed="0.00" departDelay="0.00" arrival="72.00" arrivalLane="1_3_2" arrivalPos="186.40" arrivalSpeed="12.25" duration="41.00" routeLength="392.22" waitingTime="0.00" waitingCount="0" stopTime="0.00" timeLoss="10.17" rerouteNo="0" devices="tripinfo_ES_6" vType="cars" speedFactor="1.07" vaporized=""/>
    <tripinfo id="NS_5" depart="22.00" departLane="5_1_2" departPos="5.10" departSpeed="0.00" departDelay="0.00" arrival="84.00" arrivalLane="1_3_1" arrivalPos="186.40" arrivalSpeed="13.00" duration="62.00" routeLength="395.15" waitingTime="23.00" waitingCount="1" stopTime="0.00" timeLoss="31.55" rerouteNo="0" devices="tripinfo_NS_5" vType="cars" speedFactor="1.01" vaporized=""/>
    <tripinfo id="NW_7" depart="37.00" departLane="5_1_1" departPos="5.10" departSpeed="0.00" departDelay="0.00" arrival="84.50" arrivalLane="1_2_1" arrivalPos="186.40" arrivalSpeed="13.00" duration="47.50" routeLength="379.43" waitingTime="3.50" waitingCount="5" stopTime="0.00" timeLoss="17.84" rerouteNo="0" devices="tripinfo_NW_7" vType="cars" speedFactor="1.13" vaporized=""/>
    <tripinfo id="SN_10" depart="48.00" departLane="3_1_2" departPos="5.10" departSpeed="0.00" departDelay="0.00" arrival="84.50" arrivalLane="1_5_1" arrivalPos="186.40" arrivalSpeed="12.74" duration="36.50" routeLength="395.15" waitingTime="0.00" waitingCount="0" stopTime="0.00" timeLoss="5.67" rerouteNo="0" devices="tripinfo_SN_10" vType="cars" speedFactor="1.02" vaporized=""/>
    <tripinfo id="WE_3" depart="43.00" departLane="2_1_2" departPos="5.10" departSpeed="0.00" departDelay="0.00" arrival="98.00" arrivalLane="1_4_1" arrivalPos="186.40" arrivalSpeed="12.69" duration="55.00" routeLength="395.15" waitingTime="15.00" waitingCount="1" stopTime="0.00" timeLoss="24.57" rerouteNo="0" devices="tripinfo_WE_3" vType="cars" speedFactor="1.05" vaporized=""/>
    <tripinfo id="EW_2" depart="46.00" departLane="4_1_2" departPos="5.10" departSpeed="0.00" departDelay="0.00" arrival="98.50" arrivalLane="1_2_1" arrivalPos="186.40" arrivalSpeed="12.92" duration="52.50" routeLength="395.15" waitingTime="10.00" waitingCount="1" stopTime="0.00" timeLoss="21.80" rerouteNo="0" devices="tripinfo_EW_2" vType="cars" speedFactor="1.05" vaporized=""/>
    <tripinfo id="WE_4" depart="67.00" departLane="2_1_2" departPos="5.10" departSpeed="0.00" departDelay="0.00" arrival="103.50" arrivalLane="1_4_1" arrivalPos="186.40" arrivalSpeed="13.00" duration="36.50" routeLength="395.15" waitingTime="0.00" waitingCount="0" stopTime="0.00" timeLoss="5.83" rerouteNo="0" devices="tripinfo_WE_4" vType="cars" speedFactor="0.96" vaporized=""/>
    <tripinfo id="EW_3" depart="68.00" departLane="4_1_2" departPos="5.10" departSpeed="0.00" departDelay="0.00" arrival="103.50" arrivalLane="1_2_1" arrivalPos="186.40" arrivalSpeed="11.89" duration="35.50" routeLength="395.15" waitingTime="0.00" waitingCount="0" stopTime="0.00" timeLoss="5.02" rerouteNo="0" devices="tripinfo_EW_3" vType="cars" speedFactor="0.98" vaporized=""/>
    <tripinfo id="SN_11" depart="70.00" departLane="3_1_2" departPos="5.10" departSpeed="0.00" departDelay="0.00" arrival="113.00" arrivalLane="1_5_1" arrivalPos="186.40" arrivalSpeed="13.00" duration="43.00" routeLength="395.15" waitingTime="5.00" waitingCount="1" stopTime="0.00" timeLoss="12.55" rerouteNo="0" devices="tripinfo_SN_11" vType="cars" speedFactor="1.02" vaporized=""/>
    <tripinfo id="NW_9" depart="41.00" departLane="5_1_1" departPos="5.10" departSpeed="0.00" departDelay="0.00" arrival="114.50" arrivalLane="1_2_1" arrivalPos="186.40" arrivalSpeed="11.54" duration="73.50" routeLength="379.43" waitingTime="23.00" waitingCount="2" stopTime="0.00" timeLoss="43.29" rerouteNo="0" devices="tripinfo_NW_9" vType="cars" speedFactor="0.91" vaporized=""/>
    <tripinfo id="NS_12" depart="80.00" departLane="5_1_2" departPos="5.10" departSpeed="0.00" departDelay="0.00" arrival="116.50" arrivalLane="1_3_1" arrivalPos="186.40" arrivalSpeed="11.69" duration="36.50" routeLength="395.15" waitingTime="0.00" waitingCount="0" stopTime="0.00" timeLoss="5.90" rerouteNo="0" devices="tripinfo_NS_12" vType="cars" speedFactor="1.07" vaporized=""/>
    <tripinfo id="SN_14" depart="90.00" departLane="3_1_2" departPos="5.10" departSpeed="0.00" departDelay="0.00" arrival="124.50" arrivalLane="1_5_1" arrivalPos="186.40" arrivalSpeed="12.08" duration="34.50" routeLength="395.15" waitingTime="0.00" waitingCount="0" stopTime="0.00" timeLoss="3.98" rerouteNo="0" devices="tripinfo_SN_14" vType="cars" speedFactor="1.05" vaporized=""/>
    <tripinfo id="NS_15" depart="92.00" departLane="5_1_2" departPos="5.10" departSpeed="0.00" departDelay="0.00" arrival="127.50" arrivalLane="1_3_1" arrivalPos="186.40" arrivalSpeed="12.61" duration="35.50" routeLength="395.15" waitingTime="0.00" waitingCount="0" stopTime="0.00" timeLoss="4.75" rerouteNo="0" devices="tripinfo_NS_15" vType="cars" speedFactor="1.01" vaporized=""/>
    <tripinfo id="SN_16" depart="93.00" departLane="3_1_2" departPos="5.10" departSpeed="0.00" departDelay="0.00" arrival="128.50" arrivalLane="1_5_1" arrivalPos="186.40" arrivalSpeed="12.95" duration="35.50" routeLength="395.15" waitingTime="0.00" waitingCount="0" stopTime="0.00" timeLoss="4.66" rerouteNo="0" devices="tripinfo_SN_16" vType="cars" speedFactor="0.91" vaporized=""/>
    <tripinfo id="NS_18" depart="99.00" departLane="5_1_2" departPos="5.10" departSpeed="0.00" departDelay="0.00" arrival="134.00" arrivalLane="1_3_1" arrivalPos="186.40" arrivalSpeed="13.00" duration="35.00" routeLength="395.15" waitingTime="0.00" waitingCount="0" stopTime="0.00" timeLoss="4.34" rerouteNo="0" devices="tripinfo_NS_18" vType="cars" speedFactor="0.84" vaporized=""/>
    <tripinfo id="SE_19" depart="100.00" departLane="3_1_1" departPos="5.10" departSpeed="0.00" departDelay="0.00" arrival="137.00" arrivalLane="1_4_1" arrivalPos="186.40" arrivalSpeed="12.10" duration="37.00" routeLength="379.42" waitingTime="0.00" waitingCount="0" stopTime="0.00" timeLoss="6.64" rerouteNo="0" devices="tripinfo_SE_19" vType="cars" speedFactor="0.92" vaporized=""/>
    <tripinfo id="WE_6" depart="89.00" departLane="2_1_2" departPos="5.10" departSpeed="0.00" departDelay="2.00" arrival="180.00" arrivalLane="1_4_1" arrivalPos="186.40" arrivalSpeed="13.00" duration="91.00" routeLength="395.15" waitingTime="51.00" waitingCount="1" stopTime="0.00" timeLoss="60.55" rerouteNo="0" devices="tripinfo_WE_6" vType="cars" speedFactor="0.93" vaporized=""/>
    <tripinfo id="EW_5" depart="126.00" departLane="4_1_2" departPos="5.10" departSpeed="0.00" departDelay="1.00" arrival="182.00" arrivalLane="1_2_2" arrivalPos="186.40" arrivalSpeed="11.53" duration="56.00" routeLength="395.15" waitingTime="16.00" waitingCount="1" stopTime="0.00" timeLoss="25.29" rerouteNo="0" devices="tripinfo_EW_5" vType="cars" speedFactor="1.09" vaporized=""/>
    <tripinfo id="EW_6" depart="137.00" departLane="4_1_2" departPos="5.10" departSpeed="0.00" departDelay="0.00" arrival="182.50" arrivalLane="1_2_1" arrivalPos="186.40" arrivalSpeed="13.00" duration="45.50" routeLength="395.15" waitingTime="0.00" waitingCount="0" stopTime="0.00" timeLoss="14.97" rerouteNo="0" devices="tripinfo_EW_6" vType="cars" speedFactor="1.08" vaporized=""/>
    <tripinfo id="WE_5" depart="86.00" departLane="2_1_2" departPos="5.10" departSpeed="0.00" departDelay="0.00" arrival="183.00" arrivalLane="1_4_1" arrivalPos="186.40" arrivalSpeed="12.69" duration="97.00" routeLength="395.15" waitingTime="53.50" waitingCount="1" stopTime="0.00" timeLoss="66.37" rerouteNo="0" devices="tripinfo_WE_5" vType="cars" speedFactor="0.99" vaporized=""/>
    <tripinfo id="WS_23" depart="125.00" departLane="2_1_1" departPos="5.10" departSpeed="0.00" departDelay="0.00" arrival="183.00" arrivalLane="1_3_1" arrivalPos="186.40" arrivalSpeed="12.36" duration="58.00" routeLength="379.43" waitingTime="15.00" waitingCount="1" stopTime="0.00" timeLoss="27.99" rerouteNo="0" devices="tripinfo_WS_23" vType="cars" speedFactor="1.02" vaporized=""/>
    <tripinfo id="WE_7" depart="125.00" departLane="2_1_2" departPos="5.10" departSpeed="0.00" departDelay="0.00" arrival="184.00" arrivalLane="1_4_2" arrivalPos="186.40" arrivalSpeed="12.59" duration="59.00" routeLength="395.15" waitingTime="14.50" waitingCount="1" stopTime="0.00" timeLoss="28.42" rerouteNo="0" devices="tripinfo_WE_7" vType="cars" speedFactor="1.02" vaporized=""/>
    <tripinfo id="EN_21" depart="111.00" departLane="4_1_1" departPos="5.10" departSpeed="0.00" departDelay="0.00" arrival="186.50" arrivalLane="1_5_1" arrivalPos="186.40" arrivalSpeed="13.00" duration="75.50" routeLength="379.42" waitingTime="35.00" waitingCount="2" stopTime="0.00" timeLoss="45.65" rerouteNo="0" devices="tripinfo_EN_21" vType="cars" speedFactor="1.00" vaporized=""/>
    <tripinfo id="SN_25" depart="126.00" departLane="3_1_2" departPos="5.10" departSpeed="0.00" departDelay="0.00" arrival="192.00" arrivalLane="1_5_1" arrivalPos="186.40" arrivalSpeed="13.00" duration="66.00" routeLength="395.15" waitingTime="26.50" waitingCount="1" stopTime="0.00" timeLoss="35.55" rerouteNo="0" devices="tripinfo_SN_25" vType="cars" speedFactor="0.91" vaporized=""/>
    <tripinfo id="NS_24" depart="125.00" departLane="5_1_2" departPos="5.10" departSpeed="0.00" departDelay="0.00" arrival="194.50" arrivalLane="1_3_1" arrivalPos="186.40" arrivalSpeed="12.27" duration="69.50" routeLength="395.15" waitingTime="28.50" waitingCount="1" stopTime="0.00" timeLoss="38.82" rerouteNo="0" devices="tripinfo_NS_24" vType="cars" speedFactor="1.22" vaporized=""/>
    <tripinfo id="SN_20" depart="109.00" departLane="3_1_2" departPos="5.10" departSpeed="0.00" departDelay="0.00" arrival="195.00" arrivalLane="1_5_1" arrivalPos="186.40" arrivalSpeed="12.00" duration="86.00" routeLength="395.15" waitingTime="45.00" waitingCount="1" stopTime="0.00" timeLoss="55.21" rerouteNo="0" devices="tripinfo_SN_20" vType="cars" speedFactor="0.89" vaporized=""/>
    <tripinfo id="NS_26" depart="130.00" departLane="5_1_2" departPos="5.10" departSpeed="0.00" departDelay="0.00" arrival="195.50" arrivalLane="1_3_2" arrivalPos="186.40" arrivalSpeed="12.23" duration="65.50" routeLength="395.15" waitingTime="23.50" waitingCount="1" stopTime="0.00" timeLoss="34.87" rerouteNo="0" devices="tripinfo_NS_26" vType="cars" speedFactor="1.04" vaporized=""/>
    <tripinfo id="NS_30" depart="138.00" departLane="5_1_2" departPos="5.10" departSpeed="0.00" departDelay="0.00" arrival="196.00" arrivalLane="1_3_1" arrivalPos="186.40" arrivalSpeed="13.00" duration="58.00" routeLength="395.15" waitingTime="8.50" waitingCount="4" stopTime="0.00" timeLoss="27.30" rerouteNo="0" devices="tripinfo_NS_30" vType="cars" speedFactor="1.01" vaporized=""/>
    <tripinfo id="SN_35" depart="156.00" departLane="3_1_2" departPos="5.10" departSpeed="0.00" departDelay="0.00" arrival="196.00" arrivalLane="1_5_2" arrivalPos="186.40" arrivalSpeed="12.38" duration="40.00" routeLength="395.15" waitingTime="0.00" waitingCount="0" stopTime="0.00" timeLoss="9.19" rerouteNo="0" devices="tripinfo_SN_35" vType="cars" speedFactor="1.06" vaporized=""/>
    <tripinfo id="NW_33" depart="147.00" departLane="5_1_1" departPos="5.10" departSpeed="0.00" departDelay="0.00" arrival="196.50" arrivalLane="1_2_1" arrivalPos="186.40" arrivalSpeed="13.00" duration="49.50" routeLength="379.43" waitingTime="4.50" waitingCount="5" stopTime="0.00" timeLoss="18.97" rerouteNo="0" devices="tripinfo_NW_33" vType="cars" speedFactor="0.83" vaporized=""/>
    <tripinfo id="SN_27" depart="130.00" departLane="3_1_2" departPos="5.10" departSpeed="0.00" departDelay="0.00" arrival="197.00" arrivalLane="1_5_1" arrivalPos="186.40" arrivalSpeed="12.71" duration="67.00" routeLength="395.15" waitingTime="20.50" waitingCount="1" stopTime="0.00" timeLoss="36.39" rerouteNo="0" devices="tripinfo_SN_27" vType="cars" speedFactor="1.11" vaporized=""/>
    <tripinfo id="NS_31" depart="141.00" departLane="5_1_2" departPos="5.10" departSpeed="0.00" departDelay="2.00" arrival="197.50" arrivalLane="1_3_2" arrivalPos="186.40" arrivalSpeed="12.39" duration="56.50" routeLength="395.15" waitingTime="11.00" waitingCount="1" stopTime="0.00" timeLoss="26.07" rerouteNo="0" devices="tripinfo_NS_31" vType="cars" speedFactor="1.01" vaporized=""/>
    <tripinfo id="NS_32" depart="147.00" departLane="5_1_2" departPos="5.10" departSpeed="0.00" departDelay="0.00" arrival="199.50" arrivalLane="1_3_2" arrivalPos="186.40" arrivalSpeed="12.15" duration="52.50" routeLength="395.15" waitingTime="5.50" waitingCount="1" stopTime="0.00" timeLoss="22.05" rerouteNo="0" devices="tripinfo_NS_32" vType="cars" speedFactor="1.00" vaporized=""/>
    <tripinfo id="NS_38" depart="163.00" departLane="5_1_2" departPos="5.10" departSpeed="0.00" departDelay="0.00" arrival="201.00" arrivalLane="1_3_1" arrivalPos="186.40" arrivalSpeed="11.61" duration="38.00" routeLength="395.15" waitingTime="0.00" waitingCount="0" stopTime="0.00" timeLoss="7.57" rerouteNo="0" devices="tripinfo_NS_38" vType="cars" speedFactor="0.93" vaporized=""/>
    <tripinfo id="NS_34" depart="152.00" departLane="5_1_2" departPos="5.10" departSpeed="0.00" departDelay="0.00" arrival="201.50" arrivalLane="1_3_2" arrivalPos="186.40" arrivalSpeed="11.83" duration="49.50" routeLength="395.15" waitingTime="1.50" waitingCount="1" stopTime="0.00" timeLoss="18.83" rerouteNo="0" devices="tripinfo_NS_34" vType="cars" speedFactor="0.85" vaporized=""/>
    <personinfo id="person_WE_s.2" depart="64.50" type="DEFAULT_PEDTYPE" speedFactor="1.20" duration="142.00" waitingTime="0.00" timeLoss="9.35" traveltime="142.00">
        <walk depart="64.50" departPos="100.00" arrival="206.50" arrivalPos="93.20" duration="142.00" routeLength="221.17" timeLoss="9.35" maxSpeed="1.67"/>
    </personinfo>
    <tripinfo id="ES_22" depart="119.00" departLane="4_1_3" departPos="5.10" departSpeed="0.00" departDelay="0.00" arrival="210.00" arrivalLane="1_3_2" arrivalPos="186.40" arrivalSpeed="13.00" duration="91.00" routeLength="392.22" waitingTime="52.50" waitingCount="1" stopTime="0.00" timeLoss="59.84" rerouteNo="0" devices="tripinfo_ES_22" vType="cars" speedFactor="0.97" vaporized=""/>
    <personinfo id="person_NS_w.1" depart="11.00" type="DEFAULT_PEDTYPE" speedFactor="1.12" duration="200.00" waitingTime="0.00" timeLoss="57.68" traveltime="200.00">
        <walk depart="11.00" departPos="100.00" arrival="211.00" arrivalPos="93.20" duration="200.00" routeLength="221.25" timeLoss="57.68" maxSpeed="1.55"/>
    </personinfo>
    <tripinfo id="EW_4" depart="123.00" departLane="4_1_2" departPos="5.10" departSpeed="0.00" departDelay="0.00" arrival="211.50" arrivalLane="1_2_1" arrivalPos="186.40" arrivalSpeed="12.72" duration="88.50" routeLength="395.15" waitingTime="38.00" waitingCount="2" stopTime="0.00" timeLoss="58.00" rerouteNo="0" devices="tripinfo_EW_4" vType="cars" speedFactor="1.11" vaporized=""/>
    <tripinfo id="EN_29" depart="137.00" departLane="4_1_1" departPos="5.10" departSpeed="0.00" departDelay="0.00" arrival="212.00" arrivalLane="1_5_1" arrivalPos="186.40" arrivalSpeed="12.20" duration="75.00" routeLength="379.42" waitingTime="22.00" waitingCount="2" stopTime="0.00" timeLoss="45.19" rerouteNo="0" devices="tripinfo_EN_29" vType="cars" speedFactor="1.15" vaporized=""/>
    <personinfo id="person_EW_n.0" depart="21.00" type="DEFAULT_PEDTYPE" speedFactor="1.09" duration="192.00" waitingTime="0.00" timeLoss="46.06" traveltime="192.00">
        <walk depart="21.00" departPos="100.00" arrival="213.00" arrivalPos="93.20" duration="192.00" routeLength="221.32" timeLoss="46.06" maxSpeed="1.52"/>
    </personinfo>
    <personinfo id="person_WE_s.1" depart="54.50" type="DEFAULT_PEDTYPE" speedFactor="1.08" duration="158.50" waitingTime="0.00" timeLoss="11.42" traveltime="158.50">
        <walk depart="54.50" departPos="100.00" arrival="213.00" arrivalPos="93.20" duration="158.50" routeLength="221.17" timeLoss="11.42" maxSpeed="1.50"/>
    </personinfo>
    <tripinfo id="EW_7" depart="175.00" departLane="4_1_2" departPos="5.10" departSpeed="0.00" departDelay="0.00" arrival="213.50" arrivalLane="1_2_1" arrivalPos="186.40" arrivalSpeed="12.18" duration="38.50" routeLength="395.15" waitingTime="0.00" waitingCount="0" stopTime="0.00" timeLoss="7.73" rerouteNo="0" devices="tripinfo_EW_7" vType="cars" speedFactor="1.37" vaporized=""/>
    <tripinfo id="ES_37" depart="160.00" departLane="4_1_3" departPos="5.10" departSpeed="0.00" departDelay="0.00" arrival="214.50" arrivalLane="1_3_2" arrivalPos="186.40" arrivalSpeed="12.01" duration="54.50" routeLength="392.22" waitingTime="8.00" waitingCount="1" stopTime="0.00" timeLoss="23.76" rerouteNo="0" devices="tripinfo_ES_37" vType="cars" speedFactor="1.11" vaporized=""/>
    <personinfo id="person_SW_diag.1" depart="61.00" type="DEFAULT_PEDTYPE" speedFactor="1.10" duration="157.00" waitingTime="0.00" timeLoss="16.06" traveltime="157.00">
        <walk depart="61.00" departPos="100.00" arrival="218.00" arrivalPos="93.20" duration="157.00" routeLength="216.26" timeLoss="16.06" maxSpeed="1.53"/>
    </personinfo>
    <personinfo id="person_NS_w.7" depart="51.00" type="DEFAULT_PEDTYPE" speedFactor="1.02" duration="169.50" waitingTime="0.00" timeLoss="13.65" traveltime="169.50">
        <walk depart="51.00" departPos="100.00" arrival="220.50" arrivalPos="93.20" duration="169.50" routeLength="221.25" timeLoss="13.65" maxSpeed="1.42"/>
    </personinfo>
    <personinfo id="person_ES_diag.1" depart="59.50" type="DEFAULT_PEDTYPE" speedFactor="1.13" duration="161.50" waitingTime="0.00" timeLoss="23.91" traveltime="161.50">
        <walk depart="59.50" departPos="100.00" arrival="221.00" arrivalPos="93.20" duration="161.50" routeLength="215.71" timeLoss="23.91" maxSpeed="1.57"/>
    </personinfo>
    <personinfo id="person_NS_w.2" depart="11.00" type="DEFAULT_PEDTYPE" speedFactor="1.00" duration="210.50" waitingTime="0.00" timeLoss="50.87" traveltime="210.50">
        <walk depart="11.00" departPos="100.00" arrival="221.50" arrivalPos="93.20" duration="210.50" routeLength="221.25" timeLoss="50.87" maxSpeed="1.39"/>
    </personinfo>
    <personinfo id="person_NS_w.3" depart="13.00" type="DEFAULT_PEDTYPE" speedFactor="0.99" duration="208.50" waitingTime="0.00" timeLoss="47.11" traveltime="208.50">
        <walk depart="13.00" departPos="100.00" arrival="221.50" arrivalPos="93.20" duration="208.50" routeLength="221.25" timeLoss="47.11" maxSpeed="1.37"/>
    </personinfo>
    <personinfo id="person_NS_w.0" depart="3.50" type="DEFAULT_PEDTYPE" speedFactor="1.00" duration="218.50" waitingTime="0.00" timeLoss="58.72" traveltime="218.50">
        <walk depart="3.50" departPos="100.00" arrival="222.00" arrivalPos="93.20" duration="218.50" routeLength="221.25" timeLoss="58.72" maxSpeed="1.38"/>
    </personinfo>
    <personinfo id="person_ES_diag.0" depart="51.50" type="DEFAULT_PEDTYPE" speedFactor="1.15" duration="170.50" waitingTime="0.00" timeLoss="35.85" traveltime="170.50">
        <walk depart="51.50" departPos="100.00" arrival="222.00" arrivalPos="93.20" duration="170.50" routeLength="215.71" timeLoss="35.85" maxSpeed="1.60"/>
    </personinfo>
    <personinfo id="person_WE_s.0" depart="2.00" type="DEFAULT_PEDTYPE" speedFactor="0.98" duration="220.00" waitingTime="0.00" timeLoss="56.71" traveltime="220.00">
        <walk depart="2.00" departPos="100.00" arrival="222.00" arrivalPos="93.20" duration="220.00" routeLength="221.17" timeLoss="56.71" maxSpeed="1.35"/>
    </personinfo>
    <personinfo id="person_NE_diag.3" depart="41.00" type="DEFAULT_PEDTYPE" speedFactor="1.04" duration="181.00" waitingTime="0.00" timeLoss="31.72" traveltime="181.00">
        <walk depart="41.00" departPos="100.00" arrival="222.00" arrivalPos="93.20" duration="181.00" routeLength="216.12" timeLoss="31.72" maxSpeed="1.45"/>
    </personinfo>
    <tripinfo id="WN_13" depart="85.00" departLane="2_1_3" departPos="5.10" departSpeed="0.00" departDelay="0.00" arrival="222.00" arrivalLane="1_5_2" arrivalPos="186.40" arrivalSpeed="13.00" duration="137.00" routeLength="392.22" waitingTime="97.00" waitingCount="1" stopTime="0.00" timeLoss="105.89" rerouteNo="0" devices="tripinfo_WN_13" vType="cars" speedFactor="0.99" vaporized=""/>
    <personinfo id="person_NE_diag.4" depart="54.00" type="DEFAULT_PEDTYPE" speedFactor="1.07" duration="168.50" waitingTime="0.00" timeLoss="23.49" traveltime="168.50">
        <walk depart="54.00" departPos="100.00" arrival="222.50" arrivalPos="93.20" duration="168.50" routeLength="216.12" timeLoss="23.49" maxSpeed="1.49"/>
    </personinfo>
    <tripinfo id="WE_9" depart="175.00" departLane="2_1_2" departPos="5.10" departSpeed="0.00" departDelay="0.00" arrival="223.50" arrivalLane="1_4_1" arrivalPos="186.40" arrivalSpeed="12.86" duration="48.50" routeLength="395.15" waitingTime="7.50" waitingCount="1" stopTime="0.00" timeLoss="17.89" rerouteNo="0" devices="tripinfo_WE_9" vType="cars" speedFactor="1.08" vaporized=""/>
    <personinfo id="person_NE_diag.5" depart="62.50" type="DEFAULT_PEDTYPE" speedFactor="1.07" duration="162.00" waitingTime="0.00" timeLoss="16.14" traveltime="162.00">
        <walk depart="62.50" departPos="100.00" arrival="224.50" arrivalPos="93.20" duration="162.00" routeLength="216.12" timeLoss="16.14" maxSpeed="1.48"/>
    </personinfo>
    <personinfo id="person_SN_e.0" depart="16.50" type="DEFAULT_PEDTYPE" speedFactor="0.96" duration="208.00" waitingTime="0.00" timeLoss="42.33" traveltime="208.00">
        <walk depart="16.50" departPos="100.00" arrival="224.50" arrivalPos="93.20" duration="208.00" routeLength="221.24" timeLoss="42.33" maxSpeed="1.34"/>
    </personinfo>
    <personinfo id="person_NE_diag.6" depart="70.50" type="DEFAULT_PEDTYPE" speedFactor="1.13" duration="154.50" waitingTime="0.00" timeLoss="17.00" traveltime="154.50">
        <walk depart="70.50" departPos="100.00" arrival="225.00" arrivalPos="93.20" duration="154.50" routeLength="216.12" timeLoss="17.00" maxSpeed="1.57"/>
    </personinfo>
    <personinfo id="person_NS_w.4" depart="22.50" type="DEFAULT_PEDTYPE" speedFactor="0.96" duration="203.00" waitingTime="0.00" timeLoss="37.01" traveltime="203.00">
        <walk depart="22.50" departPos="100.00" arrival="225.50" arrivalPos="93.20" duration="203.00" routeLength="221.25" timeLoss="37.01" maxSpeed="1.33"/>
    </personinfo>
    <personinfo id="person_SN_e.1" depart="49.50" type="DEFAULT_PEDTYPE" speedFactor="0.96" duration="176.00" waitingTime="0.00" timeLoss="10.02" traveltime="176.00">
        <walk depart="49.50" departPos="100.00" arrival="225.50" arrivalPos="93.20" duration="176.00" routeLength="221.24" timeLoss="10.02" maxSpeed="1.33"/>
    </personinfo>
    <tripinfo id="WE_8" depart="134.00" departLane="2_1_2" departPos="5.10" departSpeed="0.00" departDelay="0.00" arrival="225.50" arrivalLane="1_4_1" arrivalPos="186.40" arrivalSpeed="12.11" duration="91.50" routeLength="395.15" waitingTime="40.00" waitingCount="2" stopTime="0.00" timeLoss="60.76" rerouteNo="0" devices="tripinfo_WE_8" vType="cars" speedFactor="1.01" vaporized=""/>
    <tripinfo id="WN_36" depart="158.00" departLane="2_1_3" departPos="5.10" departSpeed="0.00" departDelay="0.00" arrival="225.50" arrivalLane="1_5_2" arrivalPos="186.40" arrivalSpeed="12.44" duration="67.50" routeLength="392.22" waitingTime="23.50" waitingCount="1" stopTime="0.00" timeLoss="36.92" rerouteNo="0" devices="tripinfo_WN_36" vType="cars" speedFactor="1.03" vaporized=""/>
    <tripinfo id="WE_10" depart="178.00" departLane="2_1_2" departPos="5.10" departSpeed="0.00" departDelay="1.00" arrival="225.50" arrivalLane="1_4_2" arrivalPos="186.40" arrivalSpeed="12.25" duration="47.50" routeLength="395.15" waitingTime="2.50" waitingCount="1" stopTime="0.00" timeLoss="16.74" rerouteNo="0" devices="tripinfo_WE_10" vType="cars" speedFactor="1.14" vaporized=""/>
    <personinfo id="person_NS_w.6" depart="36.00" type="DEFAULT_PEDTYPE" speedFactor="0.95" duration="190.50" waitingTime="0.00" timeLoss="22.43" traveltime="190.50">
        <walk depart="36.00" departPos="100.00" arrival="226.50" arrivalPos="93.20" duration="190.50" routeLength="221.25" timeLoss="22.43" maxSpeed="1.32"/>
    </personinfo>
    <personinfo id="person_NE_diag.0" depart="5.00" type="DEFAULT_PEDTYPE" speedFactor="0.99" duration="222.00" waitingTime="0.00" timeLoss="64.36" traveltime="222.00">
        <walk depart="5.00" departPos="100.00" arrival="227.00" arrivalPos="93.20" duration="222.00" routeLength="216.12" timeLoss="64.36" maxSpeed="1.37"/>